 Entering Gaussian System, Link 0=g09
 Input=OPT_B3LYP_LANL2TZF_def2SVP_ONL_B3LYP_CCpvDZPP_def2SVP_IEFPCM.com
 Output=OPT_B3LYP_LANL2TZF_def2SVP_ONL_B3LYP_CCpvDZPP_def2SVP_IEFPCM.log
 Initial command:
 /scr/programs/g09/l1.exe "/scr/guest/Gau-10019.inp" -scrdir="/scr/guest/"
 Entering Link 1 = /scr/programs/g09/l1.exe PID=     10020.
  
 Copyright (c) 1988,1990,1992,1993,1995,1998,2003,2009,2013,
            Gaussian, Inc.  All Rights Reserved.
  
 This is part of the Gaussian(R) 09 program.  It is based on
 the Gaussian(R) 03 system (copyright 2003, Gaussian, Inc.),
 the Gaussian(R) 98 system (copyright 1998, Gaussian, Inc.),
 the Gaussian(R) 94 system (copyright 1995, Gaussian, Inc.),
 the Gaussian 92(TM) system (copyright 1992, Gaussian, Inc.),
 the Gaussian 90(TM) system (copyright 1990, Gaussian, Inc.),
 the Gaussian 88(TM) system (copyright 1988, Gaussian, Inc.),
 the Gaussian 86(TM) system (copyright 1986, Carnegie Mellon
 University), and the Gaussian 82(TM) system (copyright 1983,
 Carnegie Mellon University). Gaussian is a federally registered
 trademark of Gaussian, Inc.
  
 This software contains proprietary and confidential information,
 including trade secrets, belonging to Gaussian, Inc.
  
 This software is provided under written license and may be
 used, copied, transmitted, or stored only in accord with that
 written license.
  
 The following legend is applicable only to US Government
 contracts under FAR:
  
                    RESTRICTED RIGHTS LEGEND
  
 Use, reproduction and disclosure by the US Government is
 subject to restrictions as set forth in subparagraphs (a)
 and (c) of the Commercial Computer Software - Restricted
 Rights clause in FAR 52.227-19.
  
 Gaussian, Inc.
 340 Quinnipiac St., Bldg. 40, Wallingford CT 06492
  
  
 ---------------------------------------------------------------
 Warning -- This program may not be used in any manner that
 competes with the business of Gaussian, Inc. or will provide
 assistance to any competitor of Gaussian, Inc.  The licensee
 of this program is prohibited from giving any competitor of
 Gaussian, Inc. access to this program.  By using this program,
 the user acknowledges that Gaussian, Inc. is engaged in the
 business of creating and licensing software in the field of
 computational chemistry and represents and warrants to the
 licensee that it is not a competitor of Gaussian, Inc. and that
 it will not use this program in any manner prohibited above.
 ---------------------------------------------------------------
  

 Cite this work as:
 Gaussian 09, Revision D.01,
 M. J. Frisch, G. W. Trucks, H. B. Schlegel, G. E. Scuseria, 
 M. A. Robb, J. R. Cheeseman, G. Scalmani, V. Barone, B. Mennucci, 
 G. A. Petersson, H. Nakatsuji, M. Caricato, X. Li, H. P. Hratchian, 
 A. F. Izmaylov, J. Bloino, G. Zheng, J. L. Sonnenberg, M. Hada, 
 M. Ehara, K. Toyota, R. Fukuda, J. Hasegawa, M. Ishida, T. Nakajima, 
 Y. Honda, O. Kitao, H. Nakai, T. Vreven, J. A. Montgomery, Jr., 
 J. E. Peralta, F. Ogliaro, M. Bearpark, J. J. Heyd, E. Brothers, 
 K. N. Kudin, V. N. Staroverov, T. Keith, R. Kobayashi, J. Normand, 
 K. Raghavachari, A. Rendell, J. C. Burant, S. S. Iyengar, J. Tomasi, 
 M. Cossi, N. Rega, J. M. Millam, M. Klene, J. E. Knox, J. B. Cross, 
 V. Bakken, C. Adamo, J. Jaramillo, R. Gomperts, R. E. Stratmann, 
 O. Yazyev, A. J. Austin, R. Cammi, C. Pomelli, J. W. Ochterski, 
 R. L. Martin, K. Morokuma, V. G. Zakrzewski, G. A. Voth, 
 P. Salvador, J. J. Dannenberg, S. Dapprich, A. D. Daniels, 
 O. Farkas, J. B. Foresman, J. V. Ortiz, J. Cioslowski, 
 and D. J. Fox, Gaussian, Inc., Wallingford CT, 2013.
 
 ******************************************
 Gaussian 09:  EM64L-G09RevD.01 24-Apr-2013
                 7-Apr-2023 
 ******************************************
 %chk=OPT_B3LYP_LANL2TZF_def2SVP_ONL_B3LYP_CCpvDZPP_def2SVP_IEFPCM.chk
 %mem=30Gb
 %nproc=24
 Will use up to   24 processors via shared memory.
 ----------------------------------------------------------------------
 #p B3LYP/gen gfinput pseudo=read Integral(Grid=UltraFine,Acc2E=12) scf
 =maxcycle=200 Polar=(DCSHG) CPHF=RdFreq scrf=(iefpcm,read,solvent=n,n-
 DiMethylFormamide)
 ----------------------------------------------------------------------
 1/38=1,40=2,83=1/1;
 2/12=2,17=6,18=5,40=1/2;
 3/5=7,11=2,16=1,17=8,24=10,25=1,30=1,70=2203,72=148,74=-5,75=-5/1,2,3;
 4//1;
 5/5=2,7=200,38=5,53=148,87=12,98=1/2;
 8/6=4,10=90,11=11,87=12/1;
 10/6=20001,13=10,72=3,87=12/2;
 6/7=2,8=2,9=2,10=2,28=1/1;
 99/5=1,9=1/99;
 Leave Link    1 at Fri Apr  7 21:15:17 2023, MaxMem=  4026531840 cpu:         4.0
 (Enter /scr/programs/g09/l101.exe)
 ------------------------------
 Primeira Hiperpolarizabilidade
 ------------------------------
 Symbolic Z-matrix:
 Charge =  0 Multiplicity = 1
 Pt                    1.0081   -0.00255  -0.02356 
 C                    -1.04078   0.00667  -0.07373 
 N                     1.35187  -2.03059  -0.02185 
 N                     1.37195   2.02225  -0.00871 
 C                     0.42876   2.9754   -0.0466 
 C                     0.39875  -2.97363  -0.06368 
 C                     2.70906   2.3705    0.04229 
 C                     2.68544  -2.39287   0.02215 
 C                     3.6128   -1.25833   0.06303 
 C                     3.62504   1.22648   0.07416 
 C                     5.02689   1.18464   0.12331 
 C                     3.07234   3.72496   0.0588 
 C                     2.09234   4.70973   0.02042 
 C                     0.74498   4.33084  -0.03545 
 C                     5.01499  -1.23065   0.11219 
 C                     5.7236   -0.02658   0.14266 
 C                     3.03492  -3.75115   0.02021 
 C                     2.04475  -4.72543  -0.02492 
 H                     4.08676  -4.0289    0.05196 
 C                     0.70094  -4.33219  -0.06618 
 C                     2.95855  -0.01254   0.04588 
 F                     5.72123  -2.36992   0.13039 
 F                     5.74431   2.31672   0.15226 
 H                    -0.62808  -2.6083   -0.09853 
 C                    -0.39846  -5.36228  -0.08682 
 H                     2.31787  -5.78251  -0.03083 
 H                    -0.60188   2.62101  -0.08328 
 C                    -0.34106   5.37277  -0.10801 
 H                     4.12664   3.99134   0.10292 
 H                     2.37574   5.7639    0.03746 
 C                    -2.27739   0.01005  -0.06064 
 C                    -3.7078    0.01389  -0.02819 
 C                    -4.44752   1.2181    0.024 
 C                    -4.45558  -1.18648  -0.03458 
 C                    -5.83709   1.22951   0.07193 
 C                    -5.84524  -1.19085   0.01257 
 C                    -6.58549   0.02116   0.0702 
 N                    -7.96181   0.02453   0.1228 
 H                     6.81301  -0.03213   0.18034 
 F                    -0.16412   6.32902   0.82111 
 F                    -1.56197   4.84579   0.07846 
 F                    -0.35116   5.99213  -1.30357 
 F                    -1.6      -4.81585  -0.33354 
 F                    -0.48758  -6.01089   1.08971 
 F                    -0.17597  -6.29735  -1.02779 
 H                    -3.91053   2.17037   0.02984 
 H                    -6.34682   2.1915    0.11298 
 H                    -6.36157  -2.1502    0.00596 
 H                    -3.92501  -2.14148  -0.07572 
 C                    -8.68538   1.28051   0.18596 
 C                    -8.69384  -1.22815   0.12419 
 H                    -8.49167   1.91775  -0.69623 
 H                    -8.4224    1.86876   1.08432 
 H                    -9.76267   1.07796   0.22219 
 H                    -8.43248  -1.86272   0.99088 
 H                    -8.50674  -1.82122  -0.78969 
 H                    -9.76963  -1.02047   0.17373 
 
 NAtoms=     57 NQM=       57 NQMF=       0 NMMI=      0 NMMIF=      0
                NMic=       0 NMicF=      0.
                    Isotopes and Nuclear Properties:
 (Nuclear quadrupole moments (NQMom) in fm**2, nuclear magnetic moments (NMagM)
  in nuclear magnetons)

  Atom         1           2           3           4           5           6           7           8           9          10
 IAtWgt=         195          12          14          14          12          12          12          12          12          12
 AtmWgt= 194.9648000  12.0000000  14.0030740  14.0030740  12.0000000  12.0000000  12.0000000  12.0000000  12.0000000  12.0000000
 NucSpn=           1           0           2           2           0           0           0           0           0           0
 AtZEff=   0.0000000   0.0000000   0.0000000   0.0000000   0.0000000   0.0000000   0.0000000   0.0000000   0.0000000   0.0000000
 NQMom=    0.0000000   0.0000000   2.0440000   2.0440000   0.0000000   0.0000000   0.0000000   0.0000000   0.0000000   0.0000000
 NMagM=    0.6095000   0.0000000   0.4037610   0.4037610   0.0000000   0.0000000   0.0000000   0.0000000   0.0000000   0.0000000
 AtZNuc=  78.0000000   6.0000000   7.0000000   7.0000000   6.0000000   6.0000000   6.0000000   6.0000000   6.0000000   6.0000000

  Atom        11          12          13          14          15          16          17          18          19          20
 IAtWgt=          12          12          12          12          12          12          12          12           1          12
 AtmWgt=  12.0000000  12.0000000  12.0000000  12.0000000  12.0000000  12.0000000  12.0000000  12.0000000   1.0078250  12.0000000
 NucSpn=           0           0           0           0           0           0           0           0           1           0
 AtZEff=   0.0000000   0.0000000   0.0000000   0.0000000   0.0000000   0.0000000   0.0000000   0.0000000   0.0000000   0.0000000
 NQMom=    0.0000000   0.0000000   0.0000000   0.0000000   0.0000000   0.0000000   0.0000000   0.0000000   0.0000000   0.0000000
 NMagM=    0.0000000   0.0000000   0.0000000   0.0000000   0.0000000   0.0000000   0.0000000   0.0000000   2.7928460   0.0000000
 AtZNuc=   6.0000000   6.0000000   6.0000000   6.0000000   6.0000000   6.0000000   6.0000000   6.0000000   1.0000000   6.0000000

  Atom        21          22          23          24          25          26          27          28          29          30
 IAtWgt=          12          19          19           1          12           1           1          12           1           1
 AtmWgt=  12.0000000  18.9984033  18.9984033   1.0078250  12.0000000   1.0078250   1.0078250  12.0000000   1.0078250   1.0078250
 NucSpn=           0           1           1           1           0           1           1           0           1           1
 AtZEff=   0.0000000   0.0000000   0.0000000   0.0000000   0.0000000   0.0000000   0.0000000   0.0000000   0.0000000   0.0000000
 NQMom=    0.0000000   0.0000000   0.0000000   0.0000000   0.0000000   0.0000000   0.0000000   0.0000000   0.0000000   0.0000000
 NMagM=    0.0000000   2.6288670   2.6288670   2.7928460   0.0000000   2.7928460   2.7928460   0.0000000   2.7928460   2.7928460
 AtZNuc=   6.0000000   9.0000000   9.0000000   1.0000000   6.0000000   1.0000000   1.0000000   6.0000000   1.0000000   1.0000000

  Atom        31          32          33          34          35          36          37          38          39          40
 IAtWgt=          12          12          12          12          12          12          12          14           1          19
 AtmWgt=  12.0000000  12.0000000  12.0000000  12.0000000  12.0000000  12.0000000  12.0000000  14.0030740   1.0078250  18.9984033
 NucSpn=           0           0           0           0           0           0           0           2           1           1
 AtZEff=   0.0000000   0.0000000   0.0000000   0.0000000   0.0000000   0.0000000   0.0000000   0.0000000   0.0000000   0.0000000
 NQMom=    0.0000000   0.0000000   0.0000000   0.0000000   0.0000000   0.0000000   0.0000000   2.0440000   0.0000000   0.0000000
 NMagM=    0.0000000   0.0000000   0.0000000   0.0000000   0.0000000   0.0000000   0.0000000   0.4037610   2.7928460   2.6288670
 AtZNuc=   6.0000000   6.0000000   6.0000000   6.0000000   6.0000000   6.0000000   6.0000000   7.0000000   1.0000000   9.0000000

  Atom        41          42          43          44          45          46          47          48          49          50
 IAtWgt=          19          19          19          19          19           1           1           1           1          12
 AtmWgt=  18.9984033  18.9984033  18.9984033  18.9984033  18.9984033   1.0078250   1.0078250   1.0078250   1.0078250  12.0000000
 NucSpn=           1           1           1           1           1           1           1           1           1           0
 AtZEff=   0.0000000   0.0000000   0.0000000   0.0000000   0.0000000   0.0000000   0.0000000   0.0000000   0.0000000   0.0000000
 NQMom=    0.0000000   0.0000000   0.0000000   0.0000000   0.0000000   0.0000000   0.0000000   0.0000000   0.0000000   0.0000000
 NMagM=    2.6288670   2.6288670   2.6288670   2.6288670   2.6288670   2.7928460   2.7928460   2.7928460   2.7928460   0.0000000
 AtZNuc=   9.0000000   9.0000000   9.0000000   9.0000000   9.0000000   1.0000000   1.0000000   1.0000000   1.0000000   6.0000000

  Atom        51          52          53          54          55          56          57
 IAtWgt=          12           1           1           1           1           1           1
 AtmWgt=  12.0000000   1.0078250   1.0078250   1.0078250   1.0078250   1.0078250   1.0078250
 NucSpn=           0           1           1           1           1           1           1
 AtZEff=   0.0000000   0.0000000   0.0000000   0.0000000   0.0000000   0.0000000   0.0000000
 NQMom=    0.0000000   0.0000000   0.0000000   0.0000000   0.0000000   0.0000000   0.0000000
 NMagM=    0.0000000   2.7928460   2.7928460   2.7928460   2.7928460   2.7928460   2.7928460
 AtZNuc=   6.0000000   1.0000000   1.0000000   1.0000000   1.0000000   1.0000000   1.0000000
 Using perturbation frequencies:    0.000000    0.023893
 Leave Link  101 at Fri Apr  7 21:15:18 2023, MaxMem=  4026531840 cpu:         5.7
 (Enter /scr/programs/g09/l202.exe)
 Stoichiometry    C28H17F8N3Pt
 Framework group  C1[X(C28H17F8N3Pt)]
 Deg. of freedom   165
 Full point group                 C1      NOp   1
 Largest Abelian subgroup         C1      NOp   1
 Largest concise Abelian subgroup C1      NOp   1
                         Standard orientation:                         
 ---------------------------------------------------------------------
 Center     Atomic      Atomic             Coordinates (Angstroms)
 Number     Number       Type             X           Y           Z
 ---------------------------------------------------------------------
      1         78           0       -1.008098   -0.002554    0.023564
      2          6           0        1.040778    0.006667    0.073725
      3          7           0       -1.351872   -2.030588    0.021851
      4          7           0       -1.371945    2.022246    0.008714
      5          6           0       -0.428755    2.975399    0.046602
      6          6           0       -0.398749   -2.973631    0.063676
      7          6           0       -2.709059    2.370497   -0.042286
      8          6           0       -2.685437   -2.392870   -0.022148
      9          6           0       -3.612802   -1.258328   -0.063032
     10          6           0       -3.625038    1.226485   -0.074159
     11          6           0       -5.026887    1.184638   -0.123314
     12          6           0       -3.072336    3.724957   -0.058798
     13          6           0       -2.092344    4.709726   -0.020417
     14          6           0       -0.744979    4.330839    0.035451
     15          6           0       -5.014989   -1.230646   -0.112194
     16          6           0       -5.723602   -0.026574   -0.142658
     17          6           0       -3.034925   -3.751150   -0.020208
     18          6           0       -2.044755   -4.725434    0.024916
     19          1           0       -4.086756   -4.028898   -0.051962
     20          6           0       -0.700943   -4.332187    0.066180
     21          6           0       -2.958548   -0.012536   -0.045884
     22          9           0       -5.721231   -2.369921   -0.130392
     23          9           0       -5.744306    2.316719   -0.152261
     24          1           0        0.628075   -2.608296    0.098527
     25          6           0        0.398456   -5.362280    0.086817
     26          1           0       -2.317869   -5.782506    0.030833
     27          1           0        0.601877    2.621014    0.083278
     28          6           0        0.341059    5.372771    0.108014
     29          1           0       -4.126636    3.991341   -0.102923
     30          1           0       -2.375743    5.763900   -0.037457
     31          6           0        2.277388    0.010047    0.060642
     32          6           0        3.707803    0.013889    0.028194
     33          6           0        4.447523    1.218101   -0.023999
     34          6           0        4.455580   -1.186484    0.034584
     35          6           0        5.837091    1.229508   -0.071927
     36          6           0        5.845235   -1.190853   -0.012570
     37          6           0        6.585491    0.021156   -0.070201
     38          7           0        7.961809    0.024529   -0.122795
     39          1           0       -6.813007   -0.032125   -0.180343
     40          9           0        0.164122    6.329015   -0.821111
     41          9           0        1.561974    4.845788   -0.078463
     42          9           0        0.351159    5.992134    1.303574
     43          9           0        1.600000   -4.815854    0.333542
     44          9           0        0.487574   -6.010889   -1.089708
     45          9           0        0.175966   -6.297350    1.027787
     46          1           0        3.910527    2.170366   -0.029839
     47          1           0        6.346824    2.191499   -0.112978
     48          1           0        6.361574   -2.150201   -0.005956
     49          1           0        3.925014   -2.141478    0.075718
     50          6           0        8.685382    1.280513   -0.185956
     51          6           0        8.693844   -1.228146   -0.124189
     52          1           0        8.491668    1.917745    0.696229
     53          1           0        8.422404    1.868758   -1.084316
     54          1           0        9.762669    1.077961   -0.222194
     55          1           0        8.432484   -1.862719   -0.990876
     56          1           0        8.506737   -1.821220    0.789689
     57          1           0        9.769630   -1.020470   -0.173730
 ---------------------------------------------------------------------
 Rotational constants (GHZ):      0.0734786      0.0557567      0.0320899
 Leave Link  202 at Fri Apr  7 21:15:18 2023, MaxMem=  4026531840 cpu:         0.1
 (Enter /scr/programs/g09/l301.exe)
 General basis read from cards:  (5D, 7F)
 Centers:      19     24     26     27     29     30     39     46     47     48
 Centers:      49     52     53     54     55     56     57
 S 3 1.00
     Exponent=  1.3010701000D+01 Coefficients=  1.9682158000D-02
     Exponent=  1.9622572000D+00 Coefficients=  1.3796524000D-01
     Exponent=  4.4453796000D-01 Coefficients=  4.7831935000D-01
 S 1 1.00
     Exponent=  1.2194962000D-01 Coefficients=  1.0000000000D+00
 P 1 1.00
     Exponent=  8.0000000000D-01 Coefficients=  1.0000000000D+00
 ****
 Centers:       2      5      6      7      8      9     10     11     12     13
 Centers:      14     15     16     17     18     20     21     25     28     31
 Centers:      32     33     34     35     36     37     50     51
 S 5 1.00
     Exponent=  1.2384016938D+03 Coefficients=  5.4568832082D-03
     Exponent=  1.8629004992D+02 Coefficients=  4.0638409211D-02
     Exponent=  4.2251176346D+01 Coefficients=  1.8025593888D-01
     Exponent=  1.1676557932D+01 Coefficients=  4.6315121755D-01
     Exponent=  3.5930506482D+00 Coefficients=  4.4087173314D-01
 S 1 1.00
     Exponent=  4.0245147363D-01 Coefficients=  1.0000000000D+00
 S 1 1.00
     Exponent=  1.3090182668D-01 Coefficients=  1.0000000000D+00
 P 3 1.00
     Exponent=  9.4680970621D+00 Coefficients=  3.8387871728D-02
     Exponent=  2.0103545142D+00 Coefficients=  2.1117025112D-01
     Exponent=  5.4771004707D-01 Coefficients=  5.1328172114D-01
 P 1 1.00
     Exponent=  1.5268613795D-01 Coefficients=  1.0000000000D+00
 D 1 1.00
     Exponent=  8.0000000000D-01 Coefficients=  1.0000000000D+00
 ****
 Centers:       3      4     38
 S 5 1.00
     Exponent=  1.7128415853D+03 Coefficients= -5.3934125305D-03
     Exponent=  2.5764812677D+02 Coefficients= -4.0221581118D-02
     Exponent=  5.8458245853D+01 Coefficients= -1.7931144990D-01
     Exponent=  1.6198367905D+01 Coefficients= -4.6376317823D-01
     Exponent=  5.0052600809D+00 Coefficients= -4.4171422662D-01
 S 1 1.00
     Exponent=  5.8731856571D-01 Coefficients=  1.0000000000D+00
 S 1 1.00
     Exponent=  1.8764592253D-01 Coefficients=  1.0000000000D+00
 P 3 1.00
     Exponent=  1.3571470233D+01 Coefficients= -4.0072398852D-02
     Exponent=  2.9257372874D+00 Coefficients= -2.1807045028D-01
     Exponent=  7.9927750754D-01 Coefficients= -5.1294466049D-01
 P 1 1.00
     Exponent=  2.1954348034D-01 Coefficients=  1.0000000000D+00
 D 1 1.00
     Exponent=  1.0000000000D+00 Coefficients=  1.0000000000D+00
 ****
 Centers:      22     23     40     41     42     43     44     45
 S 5 1.00
     Exponent=  2.8948325990D+03 Coefficients= -5.3408255515D-03
     Exponent=  4.3541939120D+02 Coefficients= -3.9904258866D-02
     Exponent=  9.8843328866D+01 Coefficients= -1.7912768038D-01
     Exponent=  2.7485198001D+01 Coefficients= -4.6758090825D-01
     Exponent=  8.5405498171D+00 Coefficients= -4.4653131020D-01
 S 1 1.00
     Exponent=  1.0654578038D+00 Coefficients=  1.0000000000D+00
 S 1 1.00
     Exponent=  3.3247346748D-01 Coefficients=  1.0000000000D+00
 P 3 1.00
     Exponent=  2.2696633924D+01 Coefficients= -4.5212874436D-02
     Exponent=  4.9872339257D+00 Coefficients= -2.3754317067D-01
     Exponent=  1.3491613954D+00 Coefficients= -5.1287353587D-01
 P 1 1.00
     Exponent=  3.4829881977D-01 Coefficients=  1.0000000000D+00
 D 1 1.00
     Exponent=  1.4000000000D+00 Coefficients=  1.0000000000D+00
 ****
 Centers:       1
 S 7 1.00
     Exponent=  3.7375000000D+01 Coefficients=  1.5698000000D-02
     Exponent=  2.3368500000D+01 Coefficients= -1.2851500000D-01
     Exponent=  1.4616400000D+01 Coefficients=  3.2999600000D-01
     Exponent=  5.2209620000D+00 Coefficients= -8.0397700000D-01
     Exponent=  1.3267320000D+00 Coefficients=  9.1276500000D-01
     Exponent=  6.1632100000D-01 Coefficients=  4.4442600000D-01
     Exponent=  1.4806800000D-01 Coefficients=  1.9225000000D-02
 S 7 1.00
     Exponent=  3.7375000000D+01 Coefficients=  3.0304000000D-02
     Exponent=  2.3368500000D+01 Coefficients= -1.5955300000D-01
     Exponent=  1.4616400000D+01 Coefficients=  3.2228700000D-01
     Exponent=  5.2209620000D+00 Coefficients= -7.4690900000D-01
     Exponent=  1.3267320000D+00 Coefficients=  1.9183060000D+00
     Exponent=  6.1632100000D-01 Coefficients= -1.1164460000D+00
     Exponent=  1.4806800000D-01 Coefficients= -1.3836520000D+00
 S 7 1.00
     Exponent=  3.7375000000D+01 Coefficients= -4.1400000000D-03
     Exponent=  2.3368500000D+01 Coefficients=  3.9687000000D-02
     Exponent=  1.4616400000D+01 Coefficients= -1.1006300000D-01
     Exponent=  5.2209620000D+00 Coefficients=  3.0039600000D-01
     Exponent=  1.3267320000D+00 Coefficients= -4.8097500000D-01
     Exponent=  6.1632100000D-01 Coefficients= -2.7699700000D-01
     Exponent=  1.4806800000D-01 Coefficients=  6.2161300000D-01
 S 1 1.00
     Exponent=  5.2391000000D-02 Coefficients=  1.0000000000D+00
 P 6 1.00
     Exponent=  9.9926800000D+00 Coefficients=  1.2404600000D-01
     Exponent=  6.3831700000D+00 Coefficients= -3.4463200000D-01
     Exponent=  1.5696500000D+00 Coefficients=  5.7112000000D-01
     Exponent=  7.4277900000D-01 Coefficients=  4.8735600000D-01
     Exponent=  3.1802000000D-01 Coefficients=  1.1195900000D-01
     Exponent=  1.1414600000D-01 Coefficients=  1.9280000000D-03
 P 6 1.00
     Exponent=  9.9926800000D+00 Coefficients= -7.7153000000D-02
     Exponent=  6.3831700000D+00 Coefficients=  2.2349400000D-01
     Exponent=  1.5696500000D+00 Coefficients= -5.2280400000D-01
     Exponent=  7.4277900000D-01 Coefficients= -3.2989800000D-01
     Exponent=  3.1802000000D-01 Coefficients=  7.2977300000D-01
     Exponent=  1.1414600000D-01 Coefficients=  5.3728800000D-01
 P 6 1.00
     Exponent=  9.9926800000D+00 Coefficients= -3.4687000000D-02
     Exponent=  6.3831700000D+00 Coefficients=  9.9932000000D-02
     Exponent=  1.5696500000D+00 Coefficients= -2.0188400000D-01
     Exponent=  7.4277900000D-01 Coefficients= -1.9845900000D-01
     Exponent=  3.1802000000D-01 Coefficients=  1.2303400000D-01
     Exponent=  1.1414600000D-01 Coefficients=  5.9557700000D-01
 P 1 1.00
     Exponent=  3.9863000000D-02 Coefficients=  1.0000000000D+00
 D 5 1.00
     Exponent=  1.0412600000D+01 Coefficients=  1.5080000000D-02
     Exponent=  6.5226600000D+00 Coefficients= -6.2295000000D-02
     Exponent=  1.6643000000D+00 Coefficients=  3.0064900000D-01
     Exponent=  7.3420800000D-01 Coefficients=  4.5396100000D-01
     Exponent=  2.9740700000D-01 Coefficients=  3.4900100000D-01
 D 5 1.00
     Exponent=  1.0412600000D+01 Coefficients= -1.9866000000D-02
     Exponent=  6.5226600000D+00 Coefficients=  7.9663000000D-02
     Exponent=  1.6643000000D+00 Coefficients= -4.6879400000D-01
     Exponent=  7.3420800000D-01 Coefficients= -4.0517400000D-01
     Exponent=  2.9740700000D-01 Coefficients=  5.1928900000D-01
 D 1 1.00
     Exponent=  1.0759900000D-01 Coefficients=  1.0000000000D+00
 F 1 1.00
     Exponent=  8.0180000000D-01 Coefficients=  1.0000000000D+00
 ****
 ======================================================================================================
                                       Pseudopotential Parameters
 ======================================================================================================
  Center     Atomic      Valence      Angular      Power
  Number     Number     Electrons     Momentum     of R      Exponent        Coefficient   SO-Coeffient
 ======================================================================================================
    1         78           18
                                      H and up 
                                                     2        1.0000000        0.00000000    0.00000000
                                      S - H
                                                     2       14.6045000      429.64608700    0.00000000
                                                     2        7.2182870       73.15688400    0.00000000
                                      P - H
                                                     2       11.5771620       88.02291700    0.00000000
                                                     2       10.8838430      175.99819600    0.00000000
                                                     2        6.4244030       13.68227400    0.00000000
                                                     2        5.2241980       27.41465100    0.00000000
                                      D - H
                                                     2        7.6996100       43.55785200    0.00000000
                                                     2        7.5508080       65.36910800    0.00000000
                                                     2        3.9611640        7.01859600    0.00000000
                                                     2        3.8727770       11.39173300    0.00000000
                                      F - H
                                                     2        3.3798690       10.71022000    0.00000000
                                                     2        3.3262550       14.27812500    0.00000000
                                      G - H
                                                     2        5.4520200      -11.65174900    0.00000000
                                                     2        5.4125850      -14.37552500    0.00000000
    2          6
                                   No pseudopotential on this center.
    3          7
                                   No pseudopotential on this center.
    4          7
                                   No pseudopotential on this center.
    5          6
                                   No pseudopotential on this center.
    6          6
                                   No pseudopotential on this center.
    7          6
                                   No pseudopotential on this center.
    8          6
                                   No pseudopotential on this center.
    9          6
                                   No pseudopotential on this center.
   10          6
                                   No pseudopotential on this center.
   11          6
                                   No pseudopotential on this center.
   12          6
                                   No pseudopotential on this center.
   13          6
                                   No pseudopotential on this center.
   14          6
                                   No pseudopotential on this center.
   15          6
                                   No pseudopotential on this center.
   16          6
                                   No pseudopotential on this center.
   17          6
                                   No pseudopotential on this center.
   18          6
                                   No pseudopotential on this center.
   19          1
                                   No pseudopotential on this center.
   20          6
                                   No pseudopotential on this center.
   21          6
                                   No pseudopotential on this center.
   22          9
                                   No pseudopotential on this center.
   23          9
                                   No pseudopotential on this center.
   24          1
                                   No pseudopotential on this center.
   25          6
                                   No pseudopotential on this center.
   26          1
                                   No pseudopotential on this center.
   27          1
                                   No pseudopotential on this center.
   28          6
                                   No pseudopotential on this center.
   29          1
                                   No pseudopotential on this center.
   30          1
                                   No pseudopotential on this center.
   31          6
                                   No pseudopotential on this center.
   32          6
                                   No pseudopotential on this center.
   33          6
                                   No pseudopotential on this center.
   34          6
                                   No pseudopotential on this center.
   35          6
                                   No pseudopotential on this center.
   36          6
                                   No pseudopotential on this center.
   37          6
                                   No pseudopotential on this center.
   38          7
                                   No pseudopotential on this center.
   39          1
                                   No pseudopotential on this center.
   40          9
                                   No pseudopotential on this center.
   41          9
                                   No pseudopotential on this center.
   42          9
                                   No pseudopotential on this center.
   43          9
                                   No pseudopotential on this center.
   44          9
                                   No pseudopotential on this center.
   45          9
                                   No pseudopotential on this center.
   46          1
                                   No pseudopotential on this center.
   47          1
                                   No pseudopotential on this center.
   48          1
                                   No pseudopotential on this center.
   49          1
                                   No pseudopotential on this center.
   50          6
                                   No pseudopotential on this center.
   51          6
                                   No pseudopotential on this center.
   52          1
                                   No pseudopotential on this center.
   53          1
                                   No pseudopotential on this center.
   54          1
                                   No pseudopotential on this center.
   55          1
                                   No pseudopotential on this center.
   56          1
                                   No pseudopotential on this center.
   57          1
                                   No pseudopotential on this center.
 ======================================================================================================
 Ernie: Thresh=  0.10000D-02 Tol=  0.10000D-05 Strict=F.
 Ernie:  14 primitive shells out of 606 were deleted.
 AO basis set in the form of general basis input (Overlap normalization):
      1 0
 S   5 1.00       0.000000000000
      0.2336850000D+02 -0.4351294186D-01
      0.1461640000D+02  0.1570522216D+00
      0.5220962000D+01 -0.4303033194D+00
      0.1326732000D+01  0.1662288612D+00
      0.6163210000D+00  0.1000014075D+01
 S   5 1.00       0.000000000000
      0.3737500000D+02  0.2775355352D-01
      0.2336850000D+02 -0.1929585178D+00
      0.1461640000D+02  0.4599113932D+00
      0.5220962000D+01 -0.1084370881D+01
      0.1326732000D+01  0.1494719495D+01
 S   5 1.00       0.000000000000
      0.2336850000D+02 -0.1063634537D-02
      0.5220962000D+01  0.4570281128D-01
      0.1326732000D+01 -0.3906569047D+00
      0.6163210000D+00 -0.2374939742D-01
      0.1480680000D+00  0.1134080299D+01
 S   1 1.00       0.000000000000
      0.5239100000D-01  0.1000000000D+01
 P   4 1.00       0.000000000000
      0.9992680000D+01  0.1328856749D+00
      0.6383170000D+01 -0.3702751534D+00
      0.1569650000D+01  0.6353899688D+00
      0.7427790000D+00  0.5169836099D+00
 P   4 1.00       0.000000000000
      0.6383170000D+01  0.9423356301D-02
      0.1569650000D+01 -0.2059365427D+00
      0.7427790000D+00  0.4674704332D-01
      0.3180200000D+00  0.1049701831D+01
 P   4 1.00       0.000000000000
      0.6383170000D+01  0.3053430690D-02
      0.7427790000D+00 -0.1342235545D+00
      0.3180200000D+00 -0.1134840677D+00
      0.1141460000D+00  0.1115088392D+01
 P   1 1.00       0.000000000000
      0.3986300000D-01  0.1000000000D+01
 D   4 1.00       0.000000000000
      0.6522660000D+01 -0.2191184087D-02
      0.1664300000D+01 -0.6632135448D-01
      0.7342080000D+00  0.1758759218D+00
      0.2974070000D+00  0.8928229604D+00
 D   4 1.00       0.000000000000
      0.1041260000D+02 -0.2317614024D-01
      0.6522660000D+01  0.9442352163D-01
      0.1664300000D+01 -0.5019044569D+00
      0.7342080000D+00 -0.5920240373D+00
 D   1 1.00       0.000000000000
      0.1075990000D+00  0.1000000000D+01
 F   1 1.00       0.000000000000
      0.8018000000D+00  0.1000000000D+01
 ****
      2 0
 S   5 1.00       0.000000000000
      0.1238401694D+04  0.5517365048D-02
      0.1862900499D+03  0.4108882856D-01
      0.4225117635D+02  0.1822538213D+00
      0.1167655793D+02  0.4682845944D+00
      0.3593050648D+01  0.4457581734D+00
 S   1 1.00       0.000000000000
      0.4024514736D+00  0.1000000000D+01
 S   1 1.00       0.000000000000
      0.1309018267D+00  0.1000000000D+01
 P   3 1.00       0.000000000000
      0.9468097062D+01  0.5688833201D-01
      0.2010354514D+01  0.3129405934D+00
      0.5477100471D+00  0.7606501651D+00
 P   1 1.00       0.000000000000
      0.1526861380D+00  0.1000000000D+01
 D   1 1.00       0.000000000000
      0.8000000000D+00  0.1000000000D+01
 ****
      3 0
 S   5 1.00       0.000000000000
      0.1712841585D+04 -0.5447799580D-02
      0.2576481268D+03 -0.4062717463D-01
      0.5845824585D+02 -0.1811196225D+00
      0.1619836791D+02 -0.4684397556D+00
      0.5005260081D+01 -0.4461684629D+00
 S   1 1.00       0.000000000000
      0.5873185657D+00  0.1000000000D+01
 S   1 1.00       0.000000000000
      0.1876459225D+00  0.1000000000D+01
 P   3 1.00       0.000000000000
      0.1357147023D+02 -0.5884811697D-01
      0.2925737287D+01 -0.3202462476D+00
      0.7992775075D+00 -0.7532822652D+00
 P   1 1.00       0.000000000000
      0.2195434803D+00  0.1000000000D+01
 D   1 1.00       0.000000000000
      0.1000000000D+01  0.1000000000D+01
 ****
      4 0
 S   5 1.00       0.000000000000
      0.1712841585D+04 -0.5447799580D-02
      0.2576481268D+03 -0.4062717463D-01
      0.5845824585D+02 -0.1811196225D+00
      0.1619836791D+02 -0.4684397556D+00
      0.5005260081D+01 -0.4461684629D+00
 S   1 1.00       0.000000000000
      0.5873185657D+00  0.1000000000D+01
 S   1 1.00       0.000000000000
      0.1876459225D+00  0.1000000000D+01
 P   3 1.00       0.000000000000
      0.1357147023D+02 -0.5884811697D-01
      0.2925737287D+01 -0.3202462476D+00
      0.7992775075D+00 -0.7532822652D+00
 P   1 1.00       0.000000000000
      0.2195434803D+00  0.1000000000D+01
 D   1 1.00       0.000000000000
      0.1000000000D+01  0.1000000000D+01
 ****
      5 0
 S   5 1.00       0.000000000000
      0.1238401694D+04  0.5517365048D-02
      0.1862900499D+03  0.4108882856D-01
      0.4225117635D+02  0.1822538213D+00
      0.1167655793D+02  0.4682845944D+00
      0.3593050648D+01  0.4457581734D+00
 S   1 1.00       0.000000000000
      0.4024514736D+00  0.1000000000D+01
 S   1 1.00       0.000000000000
      0.1309018267D+00  0.1000000000D+01
 P   3 1.00       0.000000000000
      0.9468097062D+01  0.5688833201D-01
      0.2010354514D+01  0.3129405934D+00
      0.5477100471D+00  0.7606501651D+00
 P   1 1.00       0.000000000000
      0.1526861380D+00  0.1000000000D+01
 D   1 1.00       0.000000000000
      0.8000000000D+00  0.1000000000D+01
 ****
      6 0
 S   5 1.00       0.000000000000
      0.1238401694D+04  0.5517365048D-02
      0.1862900499D+03  0.4108882856D-01
      0.4225117635D+02  0.1822538213D+00
      0.1167655793D+02  0.4682845944D+00
      0.3593050648D+01  0.4457581734D+00
 S   1 1.00       0.000000000000
      0.4024514736D+00  0.1000000000D+01
 S   1 1.00       0.000000000000
      0.1309018267D+00  0.1000000000D+01
 P   3 1.00       0.000000000000
      0.9468097062D+01  0.5688833201D-01
      0.2010354514D+01  0.3129405934D+00
      0.5477100471D+00  0.7606501651D+00
 P   1 1.00       0.000000000000
      0.1526861380D+00  0.1000000000D+01
 D   1 1.00       0.000000000000
      0.8000000000D+00  0.1000000000D+01
 ****
      7 0
 S   5 1.00       0.000000000000
      0.1238401694D+04  0.5517365048D-02
      0.1862900499D+03  0.4108882856D-01
      0.4225117635D+02  0.1822538213D+00
      0.1167655793D+02  0.4682845944D+00
      0.3593050648D+01  0.4457581734D+00
 S   1 1.00       0.000000000000
      0.4024514736D+00  0.1000000000D+01
 S   1 1.00       0.000000000000
      0.1309018267D+00  0.1000000000D+01
 P   3 1.00       0.000000000000
      0.9468097062D+01  0.5688833201D-01
      0.2010354514D+01  0.3129405934D+00
      0.5477100471D+00  0.7606501651D+00
 P   1 1.00       0.000000000000
      0.1526861380D+00  0.1000000000D+01
 D   1 1.00       0.000000000000
      0.8000000000D+00  0.1000000000D+01
 ****
      8 0
 S   5 1.00       0.000000000000
      0.1238401694D+04  0.5517365048D-02
      0.1862900499D+03  0.4108882856D-01
      0.4225117635D+02  0.1822538213D+00
      0.1167655793D+02  0.4682845944D+00
      0.3593050648D+01  0.4457581734D+00
 S   1 1.00       0.000000000000
      0.4024514736D+00  0.1000000000D+01
 S   1 1.00       0.000000000000
      0.1309018267D+00  0.1000000000D+01
 P   3 1.00       0.000000000000
      0.9468097062D+01  0.5688833201D-01
      0.2010354514D+01  0.3129405934D+00
      0.5477100471D+00  0.7606501651D+00
 P   1 1.00       0.000000000000
      0.1526861380D+00  0.1000000000D+01
 D   1 1.00       0.000000000000
      0.8000000000D+00  0.1000000000D+01
 ****
      9 0
 S   5 1.00       0.000000000000
      0.1238401694D+04  0.5517365048D-02
      0.1862900499D+03  0.4108882856D-01
      0.4225117635D+02  0.1822538213D+00
      0.1167655793D+02  0.4682845944D+00
      0.3593050648D+01  0.4457581734D+00
 S   1 1.00       0.000000000000
      0.4024514736D+00  0.1000000000D+01
 S   1 1.00       0.000000000000
      0.1309018267D+00  0.1000000000D+01
 P   3 1.00       0.000000000000
      0.9468097062D+01  0.5688833201D-01
      0.2010354514D+01  0.3129405934D+00
      0.5477100471D+00  0.7606501651D+00
 P   1 1.00       0.000000000000
      0.1526861380D+00  0.1000000000D+01
 D   1 1.00       0.000000000000
      0.8000000000D+00  0.1000000000D+01
 ****
     10 0
 S   5 1.00       0.000000000000
      0.1238401694D+04  0.5517365048D-02
      0.1862900499D+03  0.4108882856D-01
      0.4225117635D+02  0.1822538213D+00
      0.1167655793D+02  0.4682845944D+00
      0.3593050648D+01  0.4457581734D+00
 S   1 1.00       0.000000000000
      0.4024514736D+00  0.1000000000D+01
 S   1 1.00       0.000000000000
      0.1309018267D+00  0.1000000000D+01
 P   3 1.00       0.000000000000
      0.9468097062D+01  0.5688833201D-01
      0.2010354514D+01  0.3129405934D+00
      0.5477100471D+00  0.7606501651D+00
 P   1 1.00       0.000000000000
      0.1526861380D+00  0.1000000000D+01
 D   1 1.00       0.000000000000
      0.8000000000D+00  0.1000000000D+01
 ****
     11 0
 S   5 1.00       0.000000000000
      0.1238401694D+04  0.5517365048D-02
      0.1862900499D+03  0.4108882856D-01
      0.4225117635D+02  0.1822538213D+00
      0.1167655793D+02  0.4682845944D+00
      0.3593050648D+01  0.4457581734D+00
 S   1 1.00       0.000000000000
      0.4024514736D+00  0.1000000000D+01
 S   1 1.00       0.000000000000
      0.1309018267D+00  0.1000000000D+01
 P   3 1.00       0.000000000000
      0.9468097062D+01  0.5688833201D-01
      0.2010354514D+01  0.3129405934D+00
      0.5477100471D+00  0.7606501651D+00
 P   1 1.00       0.000000000000
      0.1526861380D+00  0.1000000000D+01
 D   1 1.00       0.000000000000
      0.8000000000D+00  0.1000000000D+01
 ****
     12 0
 S   5 1.00       0.000000000000
      0.1238401694D+04  0.5517365048D-02
      0.1862900499D+03  0.4108882856D-01
      0.4225117635D+02  0.1822538213D+00
      0.1167655793D+02  0.4682845944D+00
      0.3593050648D+01  0.4457581734D+00
 S   1 1.00       0.000000000000
      0.4024514736D+00  0.1000000000D+01
 S   1 1.00       0.000000000000
      0.1309018267D+00  0.1000000000D+01
 P   3 1.00       0.000000000000
      0.9468097062D+01  0.5688833201D-01
      0.2010354514D+01  0.3129405934D+00
      0.5477100471D+00  0.7606501651D+00
 P   1 1.00       0.000000000000
      0.1526861380D+00  0.1000000000D+01
 D   1 1.00       0.000000000000
      0.8000000000D+00  0.1000000000D+01
 ****
     13 0
 S   5 1.00       0.000000000000
      0.1238401694D+04  0.5517365048D-02
      0.1862900499D+03  0.4108882856D-01
      0.4225117635D+02  0.1822538213D+00
      0.1167655793D+02  0.4682845944D+00
      0.3593050648D+01  0.4457581734D+00
 S   1 1.00       0.000000000000
      0.4024514736D+00  0.1000000000D+01
 S   1 1.00       0.000000000000
      0.1309018267D+00  0.1000000000D+01
 P   3 1.00       0.000000000000
      0.9468097062D+01  0.5688833201D-01
      0.2010354514D+01  0.3129405934D+00
      0.5477100471D+00  0.7606501651D+00
 P   1 1.00       0.000000000000
      0.1526861380D+00  0.1000000000D+01
 D   1 1.00       0.000000000000
      0.8000000000D+00  0.1000000000D+01
 ****
     14 0
 S   5 1.00       0.000000000000
      0.1238401694D+04  0.5517365048D-02
      0.1862900499D+03  0.4108882856D-01
      0.4225117635D+02  0.1822538213D+00
      0.1167655793D+02  0.4682845944D+00
      0.3593050648D+01  0.4457581734D+00
 S   1 1.00       0.000000000000
      0.4024514736D+00  0.1000000000D+01
 S   1 1.00       0.000000000000
      0.1309018267D+00  0.1000000000D+01
 P   3 1.00       0.000000000000
      0.9468097062D+01  0.5688833201D-01
      0.2010354514D+01  0.3129405934D+00
      0.5477100471D+00  0.7606501651D+00
 P   1 1.00       0.000000000000
      0.1526861380D+00  0.1000000000D+01
 D   1 1.00       0.000000000000
      0.8000000000D+00  0.1000000000D+01
 ****
     15 0
 S   5 1.00       0.000000000000
      0.1238401694D+04  0.5517365048D-02
      0.1862900499D+03  0.4108882856D-01
      0.4225117635D+02  0.1822538213D+00
      0.1167655793D+02  0.4682845944D+00
      0.3593050648D+01  0.4457581734D+00
 S   1 1.00       0.000000000000
      0.4024514736D+00  0.1000000000D+01
 S   1 1.00       0.000000000000
      0.1309018267D+00  0.1000000000D+01
 P   3 1.00       0.000000000000
      0.9468097062D+01  0.5688833201D-01
      0.2010354514D+01  0.3129405934D+00
      0.5477100471D+00  0.7606501651D+00
 P   1 1.00       0.000000000000
      0.1526861380D+00  0.1000000000D+01
 D   1 1.00       0.000000000000
      0.8000000000D+00  0.1000000000D+01
 ****
     16 0
 S   5 1.00       0.000000000000
      0.1238401694D+04  0.5517365048D-02
      0.1862900499D+03  0.4108882856D-01
      0.4225117635D+02  0.1822538213D+00
      0.1167655793D+02  0.4682845944D+00
      0.3593050648D+01  0.4457581734D+00
 S   1 1.00       0.000000000000
      0.4024514736D+00  0.1000000000D+01
 S   1 1.00       0.000000000000
      0.1309018267D+00  0.1000000000D+01
 P   3 1.00       0.000000000000
      0.9468097062D+01  0.5688833201D-01
      0.2010354514D+01  0.3129405934D+00
      0.5477100471D+00  0.7606501651D+00
 P   1 1.00       0.000000000000
      0.1526861380D+00  0.1000000000D+01
 D   1 1.00       0.000000000000
      0.8000000000D+00  0.1000000000D+01
 ****
     17 0
 S   5 1.00       0.000000000000
      0.1238401694D+04  0.5517365048D-02
      0.1862900499D+03  0.4108882856D-01
      0.4225117635D+02  0.1822538213D+00
      0.1167655793D+02  0.4682845944D+00
      0.3593050648D+01  0.4457581734D+00
 S   1 1.00       0.000000000000
      0.4024514736D+00  0.1000000000D+01
 S   1 1.00       0.000000000000
      0.1309018267D+00  0.1000000000D+01
 P   3 1.00       0.000000000000
      0.9468097062D+01  0.5688833201D-01
      0.2010354514D+01  0.3129405934D+00
      0.5477100471D+00  0.7606501651D+00
 P   1 1.00       0.000000000000
      0.1526861380D+00  0.1000000000D+01
 D   1 1.00       0.000000000000
      0.8000000000D+00  0.1000000000D+01
 ****
     18 0
 S   5 1.00       0.000000000000
      0.1238401694D+04  0.5517365048D-02
      0.1862900499D+03  0.4108882856D-01
      0.4225117635D+02  0.1822538213D+00
      0.1167655793D+02  0.4682845944D+00
      0.3593050648D+01  0.4457581734D+00
 S   1 1.00       0.000000000000
      0.4024514736D+00  0.1000000000D+01
 S   1 1.00       0.000000000000
      0.1309018267D+00  0.1000000000D+01
 P   3 1.00       0.000000000000
      0.9468097062D+01  0.5688833201D-01
      0.2010354514D+01  0.3129405934D+00
      0.5477100471D+00  0.7606501651D+00
 P   1 1.00       0.000000000000
      0.1526861380D+00  0.1000000000D+01
 D   1 1.00       0.000000000000
      0.8000000000D+00  0.1000000000D+01
 ****
     19 0
 S   3 1.00       0.000000000000
      0.1301070100D+02  0.3348548481D-01
      0.1962257200D+01  0.2347218709D+00
      0.4445379600D+00  0.8137702853D+00
 S   1 1.00       0.000000000000
      0.1219496200D+00  0.1000000000D+01
 P   1 1.00       0.000000000000
      0.8000000000D+00  0.1000000000D+01
 ****
     20 0
 S   5 1.00       0.000000000000
      0.1238401694D+04  0.5517365048D-02
      0.1862900499D+03  0.4108882856D-01
      0.4225117635D+02  0.1822538213D+00
      0.1167655793D+02  0.4682845944D+00
      0.3593050648D+01  0.4457581734D+00
 S   1 1.00       0.000000000000
      0.4024514736D+00  0.1000000000D+01
 S   1 1.00       0.000000000000
      0.1309018267D+00  0.1000000000D+01
 P   3 1.00       0.000000000000
      0.9468097062D+01  0.5688833201D-01
      0.2010354514D+01  0.3129405934D+00
      0.5477100471D+00  0.7606501651D+00
 P   1 1.00       0.000000000000
      0.1526861380D+00  0.1000000000D+01
 D   1 1.00       0.000000000000
      0.8000000000D+00  0.1000000000D+01
 ****
     21 0
 S   5 1.00       0.000000000000
      0.1238401694D+04  0.5517365048D-02
      0.1862900499D+03  0.4108882856D-01
      0.4225117635D+02  0.1822538213D+00
      0.1167655793D+02  0.4682845944D+00
      0.3593050648D+01  0.4457581734D+00
 S   1 1.00       0.000000000000
      0.4024514736D+00  0.1000000000D+01
 S   1 1.00       0.000000000000
      0.1309018267D+00  0.1000000000D+01
 P   3 1.00       0.000000000000
      0.9468097062D+01  0.5688833201D-01
      0.2010354514D+01  0.3129405934D+00
      0.5477100471D+00  0.7606501651D+00
 P   1 1.00       0.000000000000
      0.1526861380D+00  0.1000000000D+01
 D   1 1.00       0.000000000000
      0.8000000000D+00  0.1000000000D+01
 ****
     22 0
 S   5 1.00       0.000000000000
      0.2894832599D+04 -0.5349321176D-02
      0.4354193912D+03 -0.3996773437D-01
      0.9884332887D+02 -0.1794126179D+00
      0.2748519800D+02 -0.4683246869D+00
      0.8540549817D+01 -0.4472416053D+00
 S   1 1.00       0.000000000000
      0.1065457804D+01  0.1000000000D+01
 S   1 1.00       0.000000000000
      0.3324734675D+00  0.1000000000D+01
 P   3 1.00       0.000000000000
      0.2269663392D+02 -0.6478214824D-01
      0.4987233926D+01 -0.3403578536D+00
      0.1349161395D+01 -0.7348581537D+00
 P   1 1.00       0.000000000000
      0.3482988198D+00  0.1000000000D+01
 D   1 1.00       0.000000000000
      0.1400000000D+01  0.1000000000D+01
 ****
     23 0
 S   5 1.00       0.000000000000
      0.2894832599D+04 -0.5349321176D-02
      0.4354193912D+03 -0.3996773437D-01
      0.9884332887D+02 -0.1794126179D+00
      0.2748519800D+02 -0.4683246869D+00
      0.8540549817D+01 -0.4472416053D+00
 S   1 1.00       0.000000000000
      0.1065457804D+01  0.1000000000D+01
 S   1 1.00       0.000000000000
      0.3324734675D+00  0.1000000000D+01
 P   3 1.00       0.000000000000
      0.2269663392D+02 -0.6478214824D-01
      0.4987233926D+01 -0.3403578536D+00
      0.1349161395D+01 -0.7348581537D+00
 P   1 1.00       0.000000000000
      0.3482988198D+00  0.1000000000D+01
 D   1 1.00       0.000000000000
      0.1400000000D+01  0.1000000000D+01
 ****
     24 0
 S   3 1.00       0.000000000000
      0.1301070100D+02  0.3348548481D-01
      0.1962257200D+01  0.2347218709D+00
      0.4445379600D+00  0.8137702853D+00
 S   1 1.00       0.000000000000
      0.1219496200D+00  0.1000000000D+01
 P   1 1.00       0.000000000000
      0.8000000000D+00  0.1000000000D+01
 ****
     25 0
 S   5 1.00       0.000000000000
      0.1238401694D+04  0.5517365048D-02
      0.1862900499D+03  0.4108882856D-01
      0.4225117635D+02  0.1822538213D+00
      0.1167655793D+02  0.4682845944D+00
      0.3593050648D+01  0.4457581734D+00
 S   1 1.00       0.000000000000
      0.4024514736D+00  0.1000000000D+01
 S   1 1.00       0.000000000000
      0.1309018267D+00  0.1000000000D+01
 P   3 1.00       0.000000000000
      0.9468097062D+01  0.5688833201D-01
      0.2010354514D+01  0.3129405934D+00
      0.5477100471D+00  0.7606501651D+00
 P   1 1.00       0.000000000000
      0.1526861380D+00  0.1000000000D+01
 D   1 1.00       0.000000000000
      0.8000000000D+00  0.1000000000D+01
 ****
     26 0
 S   3 1.00       0.000000000000
      0.1301070100D+02  0.3348548481D-01
      0.1962257200D+01  0.2347218709D+00
      0.4445379600D+00  0.8137702853D+00
 S   1 1.00       0.000000000000
      0.1219496200D+00  0.1000000000D+01
 P   1 1.00       0.000000000000
      0.8000000000D+00  0.1000000000D+01
 ****
     27 0
 S   3 1.00       0.000000000000
      0.1301070100D+02  0.3348548481D-01
      0.1962257200D+01  0.2347218709D+00
      0.4445379600D+00  0.8137702853D+00
 S   1 1.00       0.000000000000
      0.1219496200D+00  0.1000000000D+01
 P   1 1.00       0.000000000000
      0.8000000000D+00  0.1000000000D+01
 ****
     28 0
 S   5 1.00       0.000000000000
      0.1238401694D+04  0.5517365048D-02
      0.1862900499D+03  0.4108882856D-01
      0.4225117635D+02  0.1822538213D+00
      0.1167655793D+02  0.4682845944D+00
      0.3593050648D+01  0.4457581734D+00
 S   1 1.00       0.000000000000
      0.4024514736D+00  0.1000000000D+01
 S   1 1.00       0.000000000000
      0.1309018267D+00  0.1000000000D+01
 P   3 1.00       0.000000000000
      0.9468097062D+01  0.5688833201D-01
      0.2010354514D+01  0.3129405934D+00
      0.5477100471D+00  0.7606501651D+00
 P   1 1.00       0.000000000000
      0.1526861380D+00  0.1000000000D+01
 D   1 1.00       0.000000000000
      0.8000000000D+00  0.1000000000D+01
 ****
     29 0
 S   3 1.00       0.000000000000
      0.1301070100D+02  0.3348548481D-01
      0.1962257200D+01  0.2347218709D+00
      0.4445379600D+00  0.8137702853D+00
 S   1 1.00       0.000000000000
      0.1219496200D+00  0.1000000000D+01
 P   1 1.00       0.000000000000
      0.8000000000D+00  0.1000000000D+01
 ****
     30 0
 S   3 1.00       0.000000000000
      0.1301070100D+02  0.3348548481D-01
      0.1962257200D+01  0.2347218709D+00
      0.4445379600D+00  0.8137702853D+00
 S   1 1.00       0.000000000000
      0.1219496200D+00  0.1000000000D+01
 P   1 1.00       0.000000000000
      0.8000000000D+00  0.1000000000D+01
 ****
     31 0
 S   5 1.00       0.000000000000
      0.1238401694D+04  0.5517365048D-02
      0.1862900499D+03  0.4108882856D-01
      0.4225117635D+02  0.1822538213D+00
      0.1167655793D+02  0.4682845944D+00
      0.3593050648D+01  0.4457581734D+00
 S   1 1.00       0.000000000000
      0.4024514736D+00  0.1000000000D+01
 S   1 1.00       0.000000000000
      0.1309018267D+00  0.1000000000D+01
 P   3 1.00       0.000000000000
      0.9468097062D+01  0.5688833201D-01
      0.2010354514D+01  0.3129405934D+00
      0.5477100471D+00  0.7606501651D+00
 P   1 1.00       0.000000000000
      0.1526861380D+00  0.1000000000D+01
 D   1 1.00       0.000000000000
      0.8000000000D+00  0.1000000000D+01
 ****
     32 0
 S   5 1.00       0.000000000000
      0.1238401694D+04  0.5517365048D-02
      0.1862900499D+03  0.4108882856D-01
      0.4225117635D+02  0.1822538213D+00
      0.1167655793D+02  0.4682845944D+00
      0.3593050648D+01  0.4457581734D+00
 S   1 1.00       0.000000000000
      0.4024514736D+00  0.1000000000D+01
 S   1 1.00       0.000000000000
      0.1309018267D+00  0.1000000000D+01
 P   3 1.00       0.000000000000
      0.9468097062D+01  0.5688833201D-01
      0.2010354514D+01  0.3129405934D+00
      0.5477100471D+00  0.7606501651D+00
 P   1 1.00       0.000000000000
      0.1526861380D+00  0.1000000000D+01
 D   1 1.00       0.000000000000
      0.8000000000D+00  0.1000000000D+01
 ****
     33 0
 S   5 1.00       0.000000000000
      0.1238401694D+04  0.5517365048D-02
      0.1862900499D+03  0.4108882856D-01
      0.4225117635D+02  0.1822538213D+00
      0.1167655793D+02  0.4682845944D+00
      0.3593050648D+01  0.4457581734D+00
 S   1 1.00       0.000000000000
      0.4024514736D+00  0.1000000000D+01
 S   1 1.00       0.000000000000
      0.1309018267D+00  0.1000000000D+01
 P   3 1.00       0.000000000000
      0.9468097062D+01  0.5688833201D-01
      0.2010354514D+01  0.3129405934D+00
      0.5477100471D+00  0.7606501651D+00
 P   1 1.00       0.000000000000
      0.1526861380D+00  0.1000000000D+01
 D   1 1.00       0.000000000000
      0.8000000000D+00  0.1000000000D+01
 ****
     34 0
 S   5 1.00       0.000000000000
      0.1238401694D+04  0.5517365048D-02
      0.1862900499D+03  0.4108882856D-01
      0.4225117635D+02  0.1822538213D+00
      0.1167655793D+02  0.4682845944D+00
      0.3593050648D+01  0.4457581734D+00
 S   1 1.00       0.000000000000
      0.4024514736D+00  0.1000000000D+01
 S   1 1.00       0.000000000000
      0.1309018267D+00  0.1000000000D+01
 P   3 1.00       0.000000000000
      0.9468097062D+01  0.5688833201D-01
      0.2010354514D+01  0.3129405934D+00
      0.5477100471D+00  0.7606501651D+00
 P   1 1.00       0.000000000000
      0.1526861380D+00  0.1000000000D+01
 D   1 1.00       0.000000000000
      0.8000000000D+00  0.1000000000D+01
 ****
     35 0
 S   5 1.00       0.000000000000
      0.1238401694D+04  0.5517365048D-02
      0.1862900499D+03  0.4108882856D-01
      0.4225117635D+02  0.1822538213D+00
      0.1167655793D+02  0.4682845944D+00
      0.3593050648D+01  0.4457581734D+00
 S   1 1.00       0.000000000000
      0.4024514736D+00  0.1000000000D+01
 S   1 1.00       0.000000000000
      0.1309018267D+00  0.1000000000D+01
 P   3 1.00       0.000000000000
      0.9468097062D+01  0.5688833201D-01
      0.2010354514D+01  0.3129405934D+00
      0.5477100471D+00  0.7606501651D+00
 P   1 1.00       0.000000000000
      0.1526861380D+00  0.1000000000D+01
 D   1 1.00       0.000000000000
      0.8000000000D+00  0.1000000000D+01
 ****
     36 0
 S   5 1.00       0.000000000000
      0.1238401694D+04  0.5517365048D-02
      0.1862900499D+03  0.4108882856D-01
      0.4225117635D+02  0.1822538213D+00
      0.1167655793D+02  0.4682845944D+00
      0.3593050648D+01  0.4457581734D+00
 S   1 1.00       0.000000000000
      0.4024514736D+00  0.1000000000D+01
 S   1 1.00       0.000000000000
      0.1309018267D+00  0.1000000000D+01
 P   3 1.00       0.000000000000
      0.9468097062D+01  0.5688833201D-01
      0.2010354514D+01  0.3129405934D+00
      0.5477100471D+00  0.7606501651D+00
 P   1 1.00       0.000000000000
      0.1526861380D+00  0.1000000000D+01
 D   1 1.00       0.000000000000
      0.8000000000D+00  0.1000000000D+01
 ****
     37 0
 S   5 1.00       0.000000000000
      0.1238401694D+04  0.5517365048D-02
      0.1862900499D+03  0.4108882856D-01
      0.4225117635D+02  0.1822538213D+00
      0.1167655793D+02  0.4682845944D+00
      0.3593050648D+01  0.4457581734D+00
 S   1 1.00       0.000000000000
      0.4024514736D+00  0.1000000000D+01
 S   1 1.00       0.000000000000
      0.1309018267D+00  0.1000000000D+01
 P   3 1.00       0.000000000000
      0.9468097062D+01  0.5688833201D-01
      0.2010354514D+01  0.3129405934D+00
      0.5477100471D+00  0.7606501651D+00
 P   1 1.00       0.000000000000
      0.1526861380D+00  0.1000000000D+01
 D   1 1.00       0.000000000000
      0.8000000000D+00  0.1000000000D+01
 ****
     38 0
 S   5 1.00       0.000000000000
      0.1712841585D+04 -0.5447799580D-02
      0.2576481268D+03 -0.4062717463D-01
      0.5845824585D+02 -0.1811196225D+00
      0.1619836791D+02 -0.4684397556D+00
      0.5005260081D+01 -0.4461684629D+00
 S   1 1.00       0.000000000000
      0.5873185657D+00  0.1000000000D+01
 S   1 1.00       0.000000000000
      0.1876459225D+00  0.1000000000D+01
 P   3 1.00       0.000000000000
      0.1357147023D+02 -0.5884811697D-01
      0.2925737287D+01 -0.3202462476D+00
      0.7992775075D+00 -0.7532822652D+00
 P   1 1.00       0.000000000000
      0.2195434803D+00  0.1000000000D+01
 D   1 1.00       0.000000000000
      0.1000000000D+01  0.1000000000D+01
 ****
     39 0
 S   3 1.00       0.000000000000
      0.1301070100D+02  0.3348548481D-01
      0.1962257200D+01  0.2347218709D+00
      0.4445379600D+00  0.8137702853D+00
 S   1 1.00       0.000000000000
      0.1219496200D+00  0.1000000000D+01
 P   1 1.00       0.000000000000
      0.8000000000D+00  0.1000000000D+01
 ****
     40 0
 S   5 1.00       0.000000000000
      0.2894832599D+04 -0.5349321176D-02
      0.4354193912D+03 -0.3996773437D-01
      0.9884332887D+02 -0.1794126179D+00
      0.2748519800D+02 -0.4683246869D+00
      0.8540549817D+01 -0.4472416053D+00
 S   1 1.00       0.000000000000
      0.1065457804D+01  0.1000000000D+01
 S   1 1.00       0.000000000000
      0.3324734675D+00  0.1000000000D+01
 P   3 1.00       0.000000000000
      0.2269663392D+02 -0.6478214824D-01
      0.4987233926D+01 -0.3403578536D+00
      0.1349161395D+01 -0.7348581537D+00
 P   1 1.00       0.000000000000
      0.3482988198D+00  0.1000000000D+01
 D   1 1.00       0.000000000000
      0.1400000000D+01  0.1000000000D+01
 ****
     41 0
 S   5 1.00       0.000000000000
      0.2894832599D+04 -0.5349321176D-02
      0.4354193912D+03 -0.3996773437D-01
      0.9884332887D+02 -0.1794126179D+00
      0.2748519800D+02 -0.4683246869D+00
      0.8540549817D+01 -0.4472416053D+00
 S   1 1.00       0.000000000000
      0.1065457804D+01  0.1000000000D+01
 S   1 1.00       0.000000000000
      0.3324734675D+00  0.1000000000D+01
 P   3 1.00       0.000000000000
      0.2269663392D+02 -0.6478214824D-01
      0.4987233926D+01 -0.3403578536D+00
      0.1349161395D+01 -0.7348581537D+00
 P   1 1.00       0.000000000000
      0.3482988198D+00  0.1000000000D+01
 D   1 1.00       0.000000000000
      0.1400000000D+01  0.1000000000D+01
 ****
     42 0
 S   5 1.00       0.000000000000
      0.2894832599D+04 -0.5349321176D-02
      0.4354193912D+03 -0.3996773437D-01
      0.9884332887D+02 -0.1794126179D+00
      0.2748519800D+02 -0.4683246869D+00
      0.8540549817D+01 -0.4472416053D+00
 S   1 1.00       0.000000000000
      0.1065457804D+01  0.1000000000D+01
 S   1 1.00       0.000000000000
      0.3324734675D+00  0.1000000000D+01
 P   3 1.00       0.000000000000
      0.2269663392D+02 -0.6478214824D-01
      0.4987233926D+01 -0.3403578536D+00
      0.1349161395D+01 -0.7348581537D+00
 P   1 1.00       0.000000000000
      0.3482988198D+00  0.1000000000D+01
 D   1 1.00       0.000000000000
      0.1400000000D+01  0.1000000000D+01
 ****
     43 0
 S   5 1.00       0.000000000000
      0.2894832599D+04 -0.5349321176D-02
      0.4354193912D+03 -0.3996773437D-01
      0.9884332887D+02 -0.1794126179D+00
      0.2748519800D+02 -0.4683246869D+00
      0.8540549817D+01 -0.4472416053D+00
 S   1 1.00       0.000000000000
      0.1065457804D+01  0.1000000000D+01
 S   1 1.00       0.000000000000
      0.3324734675D+00  0.1000000000D+01
 P   3 1.00       0.000000000000
      0.2269663392D+02 -0.6478214824D-01
      0.4987233926D+01 -0.3403578536D+00
      0.1349161395D+01 -0.7348581537D+00
 P   1 1.00       0.000000000000
      0.3482988198D+00  0.1000000000D+01
 D   1 1.00       0.000000000000
      0.1400000000D+01  0.1000000000D+01
 ****
     44 0
 S   5 1.00       0.000000000000
      0.2894832599D+04 -0.5349321176D-02
      0.4354193912D+03 -0.3996773437D-01
      0.9884332887D+02 -0.1794126179D+00
      0.2748519800D+02 -0.4683246869D+00
      0.8540549817D+01 -0.4472416053D+00
 S   1 1.00       0.000000000000
      0.1065457804D+01  0.1000000000D+01
 S   1 1.00       0.000000000000
      0.3324734675D+00  0.1000000000D+01
 P   3 1.00       0.000000000000
      0.2269663392D+02 -0.6478214824D-01
      0.4987233926D+01 -0.3403578536D+00
      0.1349161395D+01 -0.7348581537D+00
 P   1 1.00       0.000000000000
      0.3482988198D+00  0.1000000000D+01
 D   1 1.00       0.000000000000
      0.1400000000D+01  0.1000000000D+01
 ****
     45 0
 S   5 1.00       0.000000000000
      0.2894832599D+04 -0.5349321176D-02
      0.4354193912D+03 -0.3996773437D-01
      0.9884332887D+02 -0.1794126179D+00
      0.2748519800D+02 -0.4683246869D+00
      0.8540549817D+01 -0.4472416053D+00
 S   1 1.00       0.000000000000
      0.1065457804D+01  0.1000000000D+01
 S   1 1.00       0.000000000000
      0.3324734675D+00  0.1000000000D+01
 P   3 1.00       0.000000000000
      0.2269663392D+02 -0.6478214824D-01
      0.4987233926D+01 -0.3403578536D+00
      0.1349161395D+01 -0.7348581537D+00
 P   1 1.00       0.000000000000
      0.3482988198D+00  0.1000000000D+01
 D   1 1.00       0.000000000000
      0.1400000000D+01  0.1000000000D+01
 ****
     46 0
 S   3 1.00       0.000000000000
      0.1301070100D+02  0.3348548481D-01
      0.1962257200D+01  0.2347218709D+00
      0.4445379600D+00  0.8137702853D+00
 S   1 1.00       0.000000000000
      0.1219496200D+00  0.1000000000D+01
 P   1 1.00       0.000000000000
      0.8000000000D+00  0.1000000000D+01
 ****
     47 0
 S   3 1.00       0.000000000000
      0.1301070100D+02  0.3348548481D-01
      0.1962257200D+01  0.2347218709D+00
      0.4445379600D+00  0.8137702853D+00
 S   1 1.00       0.000000000000
      0.1219496200D+00  0.1000000000D+01
 P   1 1.00       0.000000000000
      0.8000000000D+00  0.1000000000D+01
 ****
     48 0
 S   3 1.00       0.000000000000
      0.1301070100D+02  0.3348548481D-01
      0.1962257200D+01  0.2347218709D+00
      0.4445379600D+00  0.8137702853D+00
 S   1 1.00       0.000000000000
      0.1219496200D+00  0.1000000000D+01
 P   1 1.00       0.000000000000
      0.8000000000D+00  0.1000000000D+01
 ****
     49 0
 S   3 1.00       0.000000000000
      0.1301070100D+02  0.3348548481D-01
      0.1962257200D+01  0.2347218709D+00
      0.4445379600D+00  0.8137702853D+00
 S   1 1.00       0.000000000000
      0.1219496200D+00  0.1000000000D+01
 P   1 1.00       0.000000000000
      0.8000000000D+00  0.1000000000D+01
 ****
     50 0
 S   5 1.00       0.000000000000
      0.1238401694D+04  0.5517365048D-02
      0.1862900499D+03  0.4108882856D-01
      0.4225117635D+02  0.1822538213D+00
      0.1167655793D+02  0.4682845944D+00
      0.3593050648D+01  0.4457581734D+00
 S   1 1.00       0.000000000000
      0.4024514736D+00  0.1000000000D+01
 S   1 1.00       0.000000000000
      0.1309018267D+00  0.1000000000D+01
 P   3 1.00       0.000000000000
      0.9468097062D+01  0.5688833201D-01
      0.2010354514D+01  0.3129405934D+00
      0.5477100471D+00  0.7606501651D+00
 P   1 1.00       0.000000000000
      0.1526861380D+00  0.1000000000D+01
 D   1 1.00       0.000000000000
      0.8000000000D+00  0.1000000000D+01
 ****
     51 0
 S   5 1.00       0.000000000000
      0.1238401694D+04  0.5517365048D-02
      0.1862900499D+03  0.4108882856D-01
      0.4225117635D+02  0.1822538213D+00
      0.1167655793D+02  0.4682845944D+00
      0.3593050648D+01  0.4457581734D+00
 S   1 1.00       0.000000000000
      0.4024514736D+00  0.1000000000D+01
 S   1 1.00       0.000000000000
      0.1309018267D+00  0.1000000000D+01
 P   3 1.00       0.000000000000
      0.9468097062D+01  0.5688833201D-01
      0.2010354514D+01  0.3129405934D+00
      0.5477100471D+00  0.7606501651D+00
 P   1 1.00       0.000000000000
      0.1526861380D+00  0.1000000000D+01
 D   1 1.00       0.000000000000
      0.8000000000D+00  0.1000000000D+01
 ****
     52 0
 S   3 1.00       0.000000000000
      0.1301070100D+02  0.3348548481D-01
      0.1962257200D+01  0.2347218709D+00
      0.4445379600D+00  0.8137702853D+00
 S   1 1.00       0.000000000000
      0.1219496200D+00  0.1000000000D+01
 P   1 1.00       0.000000000000
      0.8000000000D+00  0.1000000000D+01
 ****
     53 0
 S   3 1.00       0.000000000000
      0.1301070100D+02  0.3348548481D-01
      0.1962257200D+01  0.2347218709D+00
      0.4445379600D+00  0.8137702853D+00
 S   1 1.00       0.000000000000
      0.1219496200D+00  0.1000000000D+01
 P   1 1.00       0.000000000000
      0.8000000000D+00  0.1000000000D+01
 ****
     54 0
 S   3 1.00       0.000000000000
      0.1301070100D+02  0.3348548481D-01
      0.1962257200D+01  0.2347218709D+00
      0.4445379600D+00  0.8137702853D+00
 S   1 1.00       0.000000000000
      0.1219496200D+00  0.1000000000D+01
 P   1 1.00       0.000000000000
      0.8000000000D+00  0.1000000000D+01
 ****
     55 0
 S   3 1.00       0.000000000000
      0.1301070100D+02  0.3348548481D-01
      0.1962257200D+01  0.2347218709D+00
      0.4445379600D+00  0.8137702853D+00
 S   1 1.00       0.000000000000
      0.1219496200D+00  0.1000000000D+01
 P   1 1.00       0.000000000000
      0.8000000000D+00  0.1000000000D+01
 ****
     56 0
 S   3 1.00       0.000000000000
      0.1301070100D+02  0.3348548481D-01
      0.1962257200D+01  0.2347218709D+00
      0.4445379600D+00  0.8137702853D+00
 S   1 1.00       0.000000000000
      0.1219496200D+00  0.1000000000D+01
 P   1 1.00       0.000000000000
      0.8000000000D+00  0.1000000000D+01
 ****
     57 0
 S   3 1.00       0.000000000000
      0.1301070100D+02  0.3348548481D-01
      0.1962257200D+01  0.2347218709D+00
      0.4445379600D+00  0.8137702853D+00
 S   1 1.00       0.000000000000
      0.1219496200D+00  0.1000000000D+01
 P   1 1.00       0.000000000000
      0.8000000000D+00  0.1000000000D+01
 ****

 There are   714 symmetry adapted cartesian basis functions of A   symmetry.
 There are   669 symmetry adapted basis functions of A   symmetry.
   669 basis functions,  1213 primitive gaussians,   714 cartesian basis functions
   148 alpha electrons      148 beta electrons
       nuclear repulsion energy      4615.4494918417 Hartrees.
 IExCor=  402 DFT=T Ex+Corr=B3LYP ExCW=0 ScaHFX=  0.200000
 ScaDFX=  0.800000  0.720000  1.000000  0.810000 ScalE2=  1.000000  1.000000
 IRadAn=      5 IRanWt=     -1 IRanGd=            0 ICorTp=0 IEmpDi=  4
 NAtoms=   57 NActive=   57 NUniq=   57 SFac= 1.00D+00 NAtFMM=   60 NAOKFM=F Big=F
 Integral buffers will be    131072 words long.
 Raffenetti 2 integral format.
 Two-electron integral symmetry is turned on.
 Using the following non-standard input for PCM:
 Radii=UFF
 --- end of non-standard input.
 ------------------------------------------------------------------------------
 Polarizable Continuum Model (PCM)
 =================================
 Model                : PCM (using non-symmetric T matrix).
 Atomic radii         : UFF (Universal Force Field).
 Polarization charges : Total charges.
 Charge compensation  : None.
 Solution method      : On-the-fly selection.
 Cavity type          : Scaled VdW (van der Waals Surface) (Alpha=1.100).
 Cavity algorithm     : GePol (No added spheres)
                        Default sphere list used, NSphG=   57.
                        Lebedev-Laikov grids with approx.  5.0 points / Ang**2.
                        Smoothing algorithm: Karplus/York (Gamma=1.0000).
                        Polarization charges: spherical gaussians, with
                                              point-specific exponents (IZeta= 3).
                        Self-potential: point-specific (ISelfS= 7).
                        Self-field    : sphere-specific E.n sum rule (ISelfD= 2).
 Solvent              : n,n-DiMethylFormamide, Eps=  37.219000 Eps(inf)=   2.046330
 ------------------------------------------------------------------------------
 GePol: Number of generator spheres                  =      57
 GePol: Total number of spheres                      =      57
 GePol: Number of exposed spheres                    =      57 (100.00%)
 GePol: Number of points                             =    4625
 GePol: Average weight of points                     =       0.13
 GePol: Minimum weight of points                     =   0.84D-10
 GePol: Maximum weight of points                     =    0.21838
 GePol: Number of points with low weight             =     240
 GePol: Fraction of low-weight points (<1% of avg)   =       5.19%
 GePol: Cavity surface area                          =    588.921 Ang**2
 GePol: Cavity volume                                =    659.404 Ang**3
 Leave Link  301 at Fri Apr  7 21:15:18 2023, MaxMem=  4026531840 cpu:         6.4
 (Enter /scr/programs/g09/l302.exe)
 NPDir=0 NMtPBC=     1 NCelOv=     1 NCel=       1 NClECP=     1 NCelD=      1
         NCelK=      1 NCelE2=     1 NClLst=     1 CellRange=     0.0.
 One-electron integrals computed using PRISM.
   1 Symmetry operations used in ECPInt.
 ECPInt:  NShTT=   44253 NPrTT=  176146 LenC2=   30916 LenP2D=   77858.
 LDataN:  DoStor=T MaxTD1= 8 Len=  415
 NBasis=   669 RedAO= T EigKep=  1.95D-04  NBF=   669
 NBsUse=   669 1.00D-06 EigRej= -1.00D+00 NBFU=   669
 Precomputing XC quadrature grid using
 IXCGrd= 4 IRadAn=           5 IRanWt=          -1 IRanGd=           0 AccXCQ= 0.00D+00.
 Defaulting to unpruned grid for atomic number  78.
 Generated NRdTot=       0 NPtTot=           0 NUsed=           0 NTot=          32
 NSgBfM=   688   688   688   688   688 MxSgAt=    57 MxSgA2=    57.
 Leave Link  302 at Fri Apr  7 21:15:23 2023, MaxMem=  4026531840 cpu:       110.0
 (Enter /scr/programs/g09/l303.exe)
 DipDrv:  MaxL=1.
 Leave Link  303 at Fri Apr  7 21:15:23 2023, MaxMem=  4026531840 cpu:         5.9
 (Enter /scr/programs/g09/l401.exe)
 ExpMin= 3.99D-02 ExpMax= 2.89D+03 ExpMxC= 4.35D+02 IAcc=3 IRadAn=         5 AccDes= 0.00D+00
 Harris functional with IExCor=  402 and IRadAn=       5 diagonalized for initial guess.
 HarFok:  IExCor=  402 AccDes= 0.00D+00 IRadAn=         5 IDoV= 1 UseB2=F ITyADJ=14
 ICtDFT=  3500011 ScaDFX=  1.000000  1.000000  1.000000  1.000000
 Defaulting to unpruned grid for atomic number  78.
 Defaulting to unpruned grid for atomic number  78.
 Defaulting to unpruned grid for atomic number  78.
 Defaulting to unpruned grid for atomic number  78.
 Defaulting to unpruned grid for atomic number  78.
 Defaulting to unpruned grid for atomic number  78.
 Defaulting to unpruned grid for atomic number  78.
 Defaulting to unpruned grid for atomic number  78.
 Defaulting to unpruned grid for atomic number  78.
 Defaulting to unpruned grid for atomic number  78.
 Defaulting to unpruned grid for atomic number  78.
 Defaulting to unpruned grid for atomic number  78.
 Defaulting to unpruned grid for atomic number  78.
 Defaulting to unpruned grid for atomic number  78.
 Defaulting to unpruned grid for atomic number  78.
 Defaulting to unpruned grid for atomic number  78.
 Defaulting to unpruned grid for atomic number  78.
 Defaulting to unpruned grid for atomic number  78.
 Defaulting to unpruned grid for atomic number  78.
 Defaulting to unpruned grid for atomic number  78.
 Defaulting to unpruned grid for atomic number  78.
 Defaulting to unpruned grid for atomic number  78.
 Defaulting to unpruned grid for atomic number  78.
 Defaulting to unpruned grid for atomic number  78.
 FoFCou: FMM=F IPFlag=           0 FMFlag=      100000 FMFlg1=           0
         NFxFlg=           0 DoJE=T BraDBF=F KetDBF=T FulRan=T
         wScrn=  0.000000 ICntrl=     500 IOpCl=  0 I1Cent=   200000004 NGrid=           0
         NMat0=    1 NMatS0=      1 NMatT0=    0 NMatD0=    1 NMtDS0=    0 NMtDT0=    0
 Petite list used in FoFCou.
 Harris En= -2157.91739571384    
 JPrj=0 DoOrth=F DoCkMO=F.
 Leave Link  401 at Fri Apr  7 21:15:32 2023, MaxMem=  4026531840 cpu:       216.9
 (Enter /scr/programs/g09/l502.exe)
 Closed shell SCF:
 Using DIIS extrapolation, IDIIS=  1040.
 Integral symmetry usage will be decided dynamically.
 IVT=     1594414 IEndB=     1594414 NGot=  4026531840 MDV=  4025488337
 LenX=  4025488337 LenY=  4024977827
 Requested convergence on RMS density matrix=1.00D-08 within 200 cycles.
 Requested convergence on MAX density matrix=1.00D-06.
 Requested convergence on             energy=1.00D-06.
 No special actions if energy rises.
 Fock matrices will be formed incrementally for  20 cycles.

 Cycle   1  Pass 1  IDiag  1:
 FoFJK:  IHMeth= 1 ICntrl=       0 DoSepK=F KAlg= 0 I1Cent=   0 FoldK=F
 IRaf= 590000000 NMat=   1 IRICut=       1 DoRegI=T DoRafI=F ISym2E= 0.
 FoFCou: FMM=F IPFlag=           0 FMFlag=      100000 FMFlg1=           0
         NFxFlg=           0 DoJE=F BraDBF=F KetDBF=F FulRan=T
         wScrn=  0.000000 ICntrl=       0 IOpCl=  0 I1Cent=           0 NGrid=           0
         NMat0=    1 NMatS0=      1 NMatT0=    0 NMatD0=    1 NMtDS0=    0 NMtDT0=    0
 Symmetry not used in FoFCou.
 Defaulting to unpruned grid for atomic number  78.
 Defaulting to unpruned grid for atomic number  78.
 Defaulting to unpruned grid for atomic number  78.
 Defaulting to unpruned grid for atomic number  78.
 Defaulting to unpruned grid for atomic number  78.
 Defaulting to unpruned grid for atomic number  78.
 Defaulting to unpruned grid for atomic number  78.
 Defaulting to unpruned grid for atomic number  78.
 Defaulting to unpruned grid for atomic number  78.
 Defaulting to unpruned grid for atomic number  78.
 Defaulting to unpruned grid for atomic number  78.
 Defaulting to unpruned grid for atomic number  78.
 Defaulting to unpruned grid for atomic number  78.
 Defaulting to unpruned grid for atomic number  78.
 Defaulting to unpruned grid for atomic number  78.
 Defaulting to unpruned grid for atomic number  78.
 Defaulting to unpruned grid for atomic number  78.
 Defaulting to unpruned grid for atomic number  78.
 Defaulting to unpruned grid for atomic number  78.
 Defaulting to unpruned grid for atomic number  78.
 Defaulting to unpruned grid for atomic number  78.
 Defaulting to unpruned grid for atomic number  78.
 Defaulting to unpruned grid for atomic number  78.
 Defaulting to unpruned grid for atomic number  78.
 Inv3:  Mode=1 IEnd=    64171875.
 Iteration    1 A*A^-1 deviation from unit magnitude is 1.02D-14 for   2374.
 Iteration    1 A*A^-1 deviation from orthogonality  is 9.77D-15 for   3850   3373.
 Iteration    1 A^-1*A deviation from unit magnitude is 9.21D-15 for   4308.
 Iteration    1 A^-1*A deviation from orthogonality  is 1.41D-10 for   4294   4243.
 Iteration    2 A*A^-1 deviation from unit magnitude is 9.88D-15 for   2043.
 Iteration    2 A*A^-1 deviation from orthogonality  is 7.73D-15 for   2770   2129.
 Iteration    2 A^-1*A deviation from unit magnitude is 1.89D-15 for    618.
 Iteration    2 A^-1*A deviation from orthogonality  is 7.77D-16 for   4073    265.
 E= -2156.17447650638    
 DIIS: error= 9.44D-02 at cycle   1 NSaved=   1.
 NSaved= 1 IEnMin= 1 EnMin= -2156.17447650638     IErMin= 1 ErrMin= 9.44D-02
 ErrMax= 9.44D-02  0.00D+00 EMaxC= 1.00D-01 BMatC= 2.38D+00 BMatP= 2.38D+00
 IDIUse=3 WtCom= 5.61D-02 WtEn= 9.44D-01
 Coeff-Com:  0.100D+01
 Coeff-En:   0.100D+01
 Coeff:      0.100D+01
 Gap=     0.708 Goal=   None    Shift=    0.000
 GapD=    0.708 DampG=2.000 DampE=0.250 DampFc=0.5000 IDamp=-1.
 Damping current iteration by 5.00D-01
 RMSDP=6.01D-03 MaxDP=6.91D-01              OVMax= 6.94D-01

 Cycle   2  Pass 1  IDiag  1:
 RMSU=  2.96D-03    CP:  9.64D-01
 E= -2156.36905830765     Delta-E=       -0.194581801266 Rises=F Damp=T
 DIIS: error= 4.16D-02 at cycle   2 NSaved=   2.
 NSaved= 2 IEnMin= 2 EnMin= -2156.36905830765     IErMin= 2 ErrMin= 4.16D-02
 ErrMax= 4.16D-02  0.00D+00 EMaxC= 1.00D-01 BMatC= 6.31D-01 BMatP= 2.38D+00
 IDIUse=3 WtCom= 5.84D-01 WtEn= 4.16D-01
 Coeff-Com:  0.304D+00 0.696D+00
 Coeff-En:   0.468D+00 0.532D+00
 Coeff:      0.372D+00 0.628D+00
 Gap=     0.101 Goal=   None    Shift=    0.000
 RMSDP=2.66D-03 MaxDP=2.60D-01 DE=-1.95D-01 OVMax= 7.36D-01

 Cycle   3  Pass 1  IDiag  1:
 RMSU=  2.24D-03    CP:  9.43D-01  5.22D-01
 E= -2157.91466288021     Delta-E=       -1.545604572568 Rises=F Damp=F
 DIIS: error= 2.32D-02 at cycle   3 NSaved=   3.
 NSaved= 3 IEnMin= 3 EnMin= -2157.91466288021     IErMin= 3 ErrMin= 2.32D-02
 ErrMax= 2.32D-02  0.00D+00 EMaxC= 1.00D-01 BMatC= 3.77D-01 BMatP= 6.31D-01
 IDIUse=3 WtCom= 7.68D-01 WtEn= 2.32D-01
 Coeff-Com:  0.227D+00 0.326D+00 0.447D+00
 Coeff-En:   0.113D+00 0.000D+00 0.887D+00
 Coeff:      0.200D+00 0.250D+00 0.549D+00
 Gap=     0.124 Goal=   None    Shift=    0.000
 RMSDP=1.38D-03 MaxDP=1.03D-01 DE=-1.55D+00 OVMax= 1.71D-01

 Cycle   4  Pass 1  IDiag  1:
 RMSU=  1.20D-03    CP:  9.47D-01  4.96D-01  6.95D-01
 E= -2158.13101241208     Delta-E=       -0.216349531864 Rises=F Damp=F
 DIIS: error= 1.72D-02 at cycle   4 NSaved=   4.
 NSaved= 4 IEnMin= 4 EnMin= -2158.13101241208     IErMin= 4 ErrMin= 1.72D-02
 ErrMax= 1.72D-02  0.00D+00 EMaxC= 1.00D-01 BMatC= 1.42D-01 BMatP= 3.77D-01
 IDIUse=3 WtCom= 8.28D-01 WtEn= 1.72D-01
 Coeff-Com:  0.602D-01 0.105D-01 0.388D+00 0.542D+00
 Coeff-En:   0.000D+00 0.000D+00 0.309D+00 0.691D+00
 Coeff:      0.498D-01 0.873D-02 0.374D+00 0.567D+00
 Gap=     0.080 Goal=   None    Shift=    0.000
 RMSDP=6.34D-04 MaxDP=5.23D-02 DE=-2.16D-01 OVMax= 8.06D-02

 Cycle   5  Pass 1  IDiag  1:
[...]
     17  -0.389118D+00
     18  -0.215665D+02
 Property number 6 -- Beta(w,w,-2w) frequency  2    0.023893:
                 1 
      1   0.608689D+05
      2  -0.184902D+03
      3   0.385565D+04
      4  -0.354309D+03
      5  -0.387356D+01
      6  -0.472034D+02
      7  -0.186994D+03
      8   0.338393D+04
      9  -0.310350D+02
     10  -0.398205D+01
     11  -0.546656D+02
     12  -0.523946D+00
     13  -0.373141D+03
     14  -0.341572D+01
     15  -0.604001D+02
     16  -0.347354D+02
     17  -0.551464D+00
     18  -0.461935D+01

 ----------------------------------------------------------------------

 Electric dipole moment (input orientation):
 (Debye = 10**-18 statcoulomb cm , SI units = C m)
                  (au)            (Debye)         (10**-30 SI)
   Tot        0.146877D+01      0.373324D+01      0.124527D+02
   x          0.145912D+01      0.370870D+01      0.123709D+02
   y         -0.110750D-01     -0.281498D-01     -0.938976D-01
   z          0.167749D+00      0.426375D+00      0.142223D+01

 Dipole polarizability, Alpha (input orientation).
 (esu units = cm**3 , SI units = C**2 m**2 J**-1)
 Alpha(0;0):
               (au)            (10**-24 esu)      (10**-40 SI)
   iso        0.617533D+03      0.915089D+02      0.101817D+03
   aniso      0.596479D+03      0.883890D+02      0.983460D+02
   xx         0.920226D+03      0.136363D+03      0.151725D+03
   yx        -0.472346D+00     -0.699945D-01     -0.778794D-01
   yy         0.689484D+03      0.102171D+03      0.113681D+03
   zx         0.259307D+01      0.384253D+00      0.427539D+00
   zy         0.303637D+01      0.449944D+00      0.500630D+00
   zz         0.242888D+03      0.359923D+02      0.400469D+02
 Alpha(-w;w) w= 1907.0nm:
                  (au)         (10**-24 esu)      (10**-40 SI)
   iso        0.518344D+03      0.768106D+02      0.854633D+02
   aniso      0.538474D+03      0.797936D+02      0.887823D+02
   xx         0.798510D+03      0.118327D+03      0.131656D+03
   yx        -0.478187D+00     -0.708600D-01     -0.788424D-01
   yy         0.572611D+03      0.848523D+02      0.944109D+02
   zx         0.184132D+01      0.272855D+00      0.303592D+00
   zy         0.234106D+01      0.346910D+00      0.385989D+00
   zz         0.183909D+03      0.272526D+02      0.303226D+02

 First dipole hyperpolarizability, Beta (input orientation).
 ||, _|_  parallel and perpendicular components, (z) with respect to z axis,
 vector components x,y,z.  Values do not include the 1/n! factor of 1/2.
 (esu units = statvolt**-1 cm**4 , SI units = C**3 m**3 J**-2)
 Beta(0;0,0):
               (au)            (10**-30 esu)      (10**-50 SI)
   || (z)    -0.216721D+03     -0.187230D+01     -0.694885D+00
   _|_(z)    -0.722402D+02     -0.624099D+00     -0.231628D+00
   x          0.154203D+06      0.133219D+04      0.494430D+03
   y         -0.496309D+03     -0.428772D+01     -0.159135D+01
   z         -0.108360D+04     -0.936149D+01     -0.347442D+01
   ||         0.308415D+05      0.266446D+03      0.988890D+02
   xxx        0.495598D+05      0.428158D+03      0.158907D+03
   xxy       -0.155129D+03     -0.134019D+01     -0.497399D+00
   yxy        0.191226D+04      0.165205D+02      0.613141D+01
   yyy       -0.991840D+01     -0.856873D-01     -0.318020D-01
   xxz       -0.269038D+03     -0.232428D+01     -0.862634D+00
   yxz       -0.178957D+02     -0.154605D+00     -0.573801D-01
   yyz       -0.705962D+02     -0.609896D+00     -0.226357D+00
   zxz       -0.710842D+02     -0.614112D+00     -0.227922D+00
   zyz       -0.389118D+00     -0.336168D-02     -0.124765D-02
   zzz       -0.215665D+02     -0.186318D+00     -0.691500D-01
 Beta(-w;w,0) w= 1907.0nm:
                  (au)         (10**-30 esu)      (10**-50 SI)
   || (z)    -0.191887D+03     -0.165775D+01     -0.615259D+00
   _|_(z)    -0.518167D+02     -0.447656D+00     -0.166143D+00
   x          0.137848D+06      0.119090D+04      0.441991D+03
   y         -0.448669D+03     -0.387615D+01     -0.143859D+01
   z         -0.959434D+03     -0.828877D+01     -0.307629D+01
   ||         0.275705D+05      0.238187D+03      0.884009D+02
   xxx        0.439600D+05      0.379780D+03      0.140952D+03
   yxx       -0.135735D+03     -0.117264D+01     -0.435215D+00
   yyx        0.181728D+04      0.156999D+02      0.582686D+01
   zxx       -0.266137D+03     -0.229922D+01     -0.853331D+00
   zyx       -0.116047D+02     -0.100256D+00     -0.372090D-01
   zzx       -0.151524D+02     -0.130905D+00     -0.485841D-01
   xxy       -0.134560D+03     -0.116249D+01     -0.431447D+00
   yxy        0.212882D+04      0.183914D+02      0.682578D+01
   yyy       -0.136876D+02     -0.118250D+00     -0.438875D-01
   zxy       -0.108680D+02     -0.938910D-01     -0.348467D-01
   zyy       -0.574573D+02     -0.496386D+00     -0.184229D+00
   zzy       -0.564811D+00     -0.487953D-02     -0.181099D-02
   xxz       -0.237824D+03     -0.205462D+01     -0.762551D+00
   yxz       -0.104427D+02     -0.902168D-01     -0.334831D-01
   yyz       -0.493329D+02     -0.426198D+00     -0.158179D+00
   zxz       -0.456915D+02     -0.394739D+00     -0.146503D+00
   zyz       -0.505825D+00     -0.436993D-02     -0.162186D-02
   zzz       -0.836291D+01     -0.722490D-01     -0.268145D-01
 Beta(-2w;w,w) w= 1907.0nm:
                  (au)         (10**-30 esu)      (10**-50 SI)
   || (z)    -0.253070D+03     -0.218632D+01     -0.811433D+00
   _|_(z)    -0.925452D+02     -0.799519D+00     -0.296733D+00
   x          0.193114D+06      0.166835D+04      0.619192D+03
   y         -0.651531D+03     -0.562872D+01     -0.208904D+01
   z         -0.126535D+04     -0.109316D+02     -0.405716D+01
   ||         0.386238D+05      0.333679D+03      0.123842D+03
   xxx        0.608689D+05      0.525860D+03      0.195168D+03
   yxx       -0.186994D+03     -0.161548D+01     -0.599570D+00
   zxx       -0.373141D+03     -0.322364D+01     -0.119642D+01
   xyx       -0.184902D+03     -0.159741D+01     -0.592864D+00
   yyx        0.338393D+04      0.292345D+02      0.108501D+02
   zyx       -0.341572D+01     -0.295091D-01     -0.109520D-01
   xyy        0.385565D+04      0.333098D+02      0.123626D+02
   yyy       -0.310350D+02     -0.268118D+00     -0.995094D-01
   zyy       -0.604001D+02     -0.521810D+00     -0.193665D+00
   xzx       -0.354309D+03     -0.306095D+01     -0.113604D+01
   yzx       -0.398205D+01     -0.344018D-01     -0.127679D-01
   zzx       -0.347354D+02     -0.300087D+00     -0.111374D+00
   xzy       -0.387356D+01     -0.334646D-01     -0.124200D-01
   yzy       -0.546656D+02     -0.472268D+00     -0.175278D+00
   zzy       -0.551464D+00     -0.476422D-02     -0.176819D-02
   xzz       -0.472034D+02     -0.407801D+00     -0.151351D+00
   yzz       -0.523946D+00     -0.452648D-02     -0.167996D-02
   zzz       -0.461935D+01     -0.399076D-01     -0.148113D-01

 ----------------------------------------------------------------------

 Dipole orientation:
    78          0.26187576          0.00764550          1.88745988
     6         -0.08623856         -0.00167492         -1.96986641
     7          0.30712342         -3.82019590          2.56209658
     7          0.33828469          3.83860181          2.54486571
     6          0.21786540          5.62718542          0.75245176
     6          0.16785990         -5.61490289          0.77720290
     6          0.53567979          4.51437943          5.06108379
     6          0.50786827         -4.48720740          5.08026557
     6          0.64576950         -2.33097887          6.81387180
     6          0.65909104          2.36471159          6.80383760
     6          0.86897155          2.30414646          9.44674348
     6          0.60032944          7.07865782          5.72733190
     6          0.47329073          8.92651126          3.86527051
     6          0.28243171          8.19264147          1.32919407
     6          0.85659318         -2.26015554          9.45642299
     6          0.96770574          0.02453134         10.77612495
     6          0.56971620         -7.04944122          5.75529550
     6          0.42824973         -8.90369790          3.90058637
     1          0.73368985         -7.56046664          7.74071600
     6          0.22055126         -8.17826713          1.36332968
     6          0.55252036          0.01455039          5.56418388
     9          0.96044979         -4.40373166         10.80241718
     9          0.98391879          4.45288726         10.78367540
     1          0.01621260         -4.93809690         -1.16318824
     6          0.00882111        -10.13902283         -0.69035561
     1          0.48489972        -10.89778709          4.42709045
     1          0.05967805          4.94391272         -1.18522854
     6          0.19739158         10.14667559         -0.74014008
     1          0.74852496          7.59604804          7.71230405
     1          0.51588649         10.92235301          4.38595400
     6         -0.37776872         -0.01081206         -4.28858727
     6         -0.74749398         -0.02126245         -6.96696667
     6         -0.98989975          2.24560014         -8.36154242
     6         -0.91221022         -2.29911222         -8.35504839
     6         -1.37976981          2.25018431        -10.96000628
     6         -1.30084646         -2.32435098        -10.95361783
     6         -1.55347771         -0.04268616        -12.34813723
     7         -1.94934838         -0.05304845        -14.92060525
     1          1.13211630          0.02841932         12.82948487
     9         -1.49650776         11.96910978         -0.22107101
     9         -0.42300141          9.13801889         -2.98441640
     9          2.44751236         11.29987831         -1.02595965
     9          0.21950095         -9.12526066         -3.00705818
     9         -2.22736012        -11.34902140         -0.59449019
     9          1.81147156        -11.91654025         -0.46243583
     1         -0.87281550          4.05193196         -7.36574469
     1         -1.55467650          4.06210012        -11.92177915
     1         -1.41210735         -4.14381753        -11.91070214
     1         -0.73256052         -4.09754469         -7.35428319
     6         -2.20820022          2.31200358        -16.28323863
     6         -2.12594300         -2.42942061        -16.27670914
     1         -0.50214534          3.50602676        -16.11905681
     1         -3.83044124          3.43971066        -15.60404044
     1         -2.51141421          1.91608527        -18.29492953
     1         -3.70460874         -3.61285862        -15.58996021
     1         -0.37744766         -3.56075573        -16.11424009
     1         -2.44859497         -2.04995128        -18.28855645

 Electric dipole moment (dipole orientation):
 (Debye = 10**-18 statcoulomb cm , SI units = C m)
                  (au)            (Debye)         (10**-30 SI)
   Tot        0.146877D+01      0.373324D+01      0.124527D+02
   x          0.000000D+00      0.000000D+00      0.000000D+00
   y          0.000000D+00      0.000000D+00      0.000000D+00
   z          0.146877D+01      0.373324D+01      0.124527D+02

 Dipole polarizability, Alpha (dipole orientation).
 (esu units = cm**3 , SI units = C**2 m**2 J**-1)
 Alpha(0;0):
               (au)            (10**-24 esu)      (10**-40 SI)
   iso        0.617533D+03      0.915089D+02      0.101817D+03
   aniso      0.596479D+03      0.883890D+02      0.983460D+02
   xx         0.251122D+03      0.372124D+02      0.414044D+02
   yx         0.437407D+00      0.648170D-01      0.721187D-01
   yy         0.689508D+03      0.102175D+03      0.113685D+03
   zx         0.743594D+02      0.110189D+02      0.122602D+02
   zy         0.105529D+01      0.156378D+00      0.173993D+00
   zz         0.911968D+03      0.135140D+03      0.150363D+03
 Alpha(-w;w) w= 1907.0nm:
                  (au)         (10**-24 esu)      (10**-40 SI)
   iso        0.518344D+03      0.768106D+02      0.854633D+02
   aniso      0.538474D+03      0.797936D+02      0.887823D+02
   xx         0.191501D+03      0.283775D+02      0.315742D+02
   yx         0.694394D+00      0.102899D+00      0.114490D+00
   yy         0.572629D+03      0.848548D+02      0.944137D+02
   zx         0.679673D+02      0.100717D+02      0.112063D+02
   zy         0.981412D+00      0.145430D+00      0.161813D+00
   zz         0.790901D+03      0.117199D+03      0.130402D+03

 First dipole hyperpolarizability, Beta (dipole orientation).
 ||, _|_  parallel and perpendicular components, (z) with respect to z axis,
 vector components x,y,z.  Values do not include the 1/n! factor of 1/2.
 (esu units = statvolt**-1 cm**4 , SI units = C**3 m**3 J**-2)
 Beta(0;0,0):
               (au)            (10**-30 esu)      (10**-50 SI)
   || (z)     0.306139D+05      0.264480D+03      0.981592D+02
   _|_(z)     0.102046D+05      0.881600D+02      0.327197D+02
   x          0.186926D+05      0.161489D+03      0.599352D+02
   y          0.532240D+03      0.459814D+01      0.170656D+01
   z          0.153069D+06      0.132240D+04      0.490796D+03
   ||         0.308415D+05      0.266446D+03      0.988890D+02
   xxx        0.815687D+02      0.704690D+00      0.261539D+00
   xxy        0.975759D+01      0.842980D-01      0.312864D-01
   yxy        0.288948D+03      0.249629D+01      0.926473D+00
   yyy        0.270386D+02      0.233593D+00      0.866956D-01
   xxz        0.632821D+03      0.546708D+01      0.202905D+01
   yxz        0.503416D+02      0.434912D+00      0.161413D+00
   yyz        0.189115D+04      0.163381D+02      0.606372D+01
   zxz        0.586034D+04      0.506288D+02      0.187904D+02
   zyz        0.140617D+03      0.121482D+01      0.450870D+00
   zzz        0.484992D+05      0.418995D+03      0.155506D+03
 Beta(-w;w,0) w= 1907.0nm:
                  (au)         (10**-30 esu)      (10**-50 SI)
   || (z)     0.273672D+05      0.236432D+03      0.877492D+02
   _|_(z)     0.903074D+04      0.780186D+02      0.289558D+02
   x          0.167009D+05      0.144282D+03      0.535490D+02
   y          0.470864D+03      0.406790D+01      0.150976D+01
   z          0.136836D+06      0.118216D+04      0.438746D+03
   ||         0.275705D+05      0.238187D+03      0.884009D+02
   xxx        0.717944D+02      0.620247D+00      0.230199D+00
   yxx        0.787865D+01      0.680654D-01      0.252618D-01
   yyx        0.256880D+03      0.221925D+01      0.823652D+00
   zxx        0.581636D+03      0.502488D+01      0.186494D+01
   zyx        0.422905D+02      0.365357D+00      0.135599D+00
   zzx        0.519274D+04      0.448613D+02      0.166498D+02
   xxy        0.834714D+01      0.721128D-01      0.267640D-01
   yxy        0.300544D+03      0.259646D+01      0.963652D+00
   yyy        0.259046D+02      0.223795D+00      0.830594D-01
   zxy        0.427164D+02      0.369037D+00      0.136964D+00
   zyy        0.210793D+04      0.182108D+02      0.675878D+01
   zzy        0.122371D+03      0.105719D+01      0.392365D+00
   xxz        0.615204D+03      0.531488D+01      0.197257D+01
   yxz        0.410087D+02      0.354284D+00      0.131489D+00
   yyz        0.179936D+04      0.155450D+02      0.576938D+01
   zxz        0.521738D+04      0.450741D+02      0.167288D+02
   zyz        0.123338D+03      0.106554D+01      0.395465D+00
   zzz        0.430141D+05      0.371609D+03      0.137919D+03
 Beta(-2w;w,w) w= 1907.0nm:
                  (au)         (10**-30 esu)      (10**-50 SI)
   || (z)     0.383410D+05      0.331236D+03      0.122935D+03
   _|_(z)     0.129315D+05      0.111718D+03      0.414629D+02
   x          0.233181D+05      0.201450D+03      0.747662D+02
   y          0.637250D+03      0.550535D+01      0.204325D+01
   z          0.191705D+06      0.165618D+04      0.614675D+03
   ||         0.386238D+05      0.333679D+03      0.123842D+03
   xxx        0.962242D+02      0.831302D+00      0.308530D+00
   yxx        0.943121D+01      0.814783D-01      0.302399D-01
   zxx        0.822826D+03      0.710858D+01      0.263828D+01
   xyx        0.986485D+01      0.852246D-01      0.316303D-01
   yyx        0.441126D+03      0.381098D+01      0.141441D+01
   zyx        0.540681D+02      0.467106D+00      0.173362D+00
   xyy        0.500689D+03      0.432556D+01      0.160539D+01
   yyy        0.390956D+02      0.337755D+00      0.125355D+00
   zyy        0.382307D+04      0.330284D+02      0.122582D+02
   xzx        0.837336D+03      0.723393D+01      0.268480D+01
   yzx        0.506834D+02      0.437866D+00      0.162509D+00
   zzx        0.720972D+04      0.622864D+02      0.231170D+02
   xzy        0.500475D+02      0.432372D+00      0.160470D+00
   yzy        0.335513D+04      0.289857D+02      0.107577D+02
   zzy        0.163177D+03      0.140972D+01      0.523204D+00
   xzz        0.722702D+04      0.624358D+02      0.231724D+02
   yzz        0.164449D+03      0.142071D+01      0.527283D+00
   zzz        0.595580D+05      0.514535D+03      0.190964D+03

 ----------------------------------------------------------------------
 1\1\GINC-NEQC23\SP\RB3LYP\Gen\C28H17F8N3Pt1\GUEST\07-Apr-2023\0\\#p B3
 LYP/gen gfinput pseudo=read Integral(Grid=UltraFine,Acc2E=12) scf=maxc
 ycle=200 Polar=(DCSHG) CPHF=RdFreq scrf=(iefpcm,read,solvent=n,n-DiMet
 hylFormamide)\\Primeira Hiperpolarizabilidade\\0,1\Pt,0,1.008098,-0.00
 2554,-0.023564\C,0,-1.040778,0.006667,-0.073725\N,0,1.351872,-2.030588
 ,-0.021851\N,0,1.371945,2.022246,-0.008714\C,0,0.428756,2.975399,-0.04
 6602\C,0,0.398749,-2.973631,-0.063676\C,0,2.709059,2.370496,0.042286\C
 ,0,2.685437,-2.392871,0.022148\C,0,3.612802,-1.258329,0.063032\C,0,3.6
 25038,1.226484,0.074159\C,0,5.026887,1.184637,0.123314\C,0,3.072337,3.
 724956,0.058798\C,0,2.092345,4.709726,0.020417\C,0,0.74498,4.330839,-0
 .035451\C,0,5.014989,-1.230647,0.112194\C,0,5.723602,-0.026575,0.14265
 8\C,0,3.034924,-3.751151,0.020208\C,0,2.044754,-4.725434,-0.024916\H,0
 ,4.086755,-4.028899,0.051962\C,0,0.700942,-4.332187,-0.06618\C,0,2.958
 548,-0.012537,0.045884\F,0,5.721231,-2.369922,0.130392\F,0,5.744306,2.
 316718,0.152261\H,0,-0.628075,-2.608296,-0.098527\C,0,-0.398457,-5.362
 28,-0.086817\H,0,2.317868,-5.782506,-0.030833\H,0,-0.601877,2.621014,-
 0.083278\C,0,-0.341058,5.372771,-0.108014\H,0,4.126637,3.99134,0.10292
 3\H,0,2.375744,5.7639,0.037457\C,0,-2.277388,0.010047,-0.060642\C,0,-3
 .707803,0.013889,-0.028194\C,0,-4.447523,1.218102,0.023999\C,0,-4.4555
 8,-1.186483,-0.034584\C,0,-5.837091,1.229509,0.071927\C,0,-5.845235,-1
 .190852,0.01257\C,0,-6.585491,0.021157,0.070201\N,0,-7.961809,0.02453,
 0.122795\H,0,6.813007,-0.032126,0.180343\F,0,-0.164121,6.329015,0.8211
 11\F,0,-1.561973,4.845788,0.078463\F,0,-0.351158,5.992134,-1.303574\F,
 0,-1.600001,-4.815854,-0.333542\F,0,-0.487575,-6.010889,1.089708\F,0,-
 0.175967,-6.29735,-1.027787\H,0,-3.910527,2.170366,0.029839\H,0,-6.346
 824,2.1915,0.112978\H,0,-6.361574,-2.1502,0.005956\H,0,-3.925014,-2.14
 1478,-0.075718\C,0,-8.685382,1.280514,0.185956\C,0,-8.693844,-1.228145
 ,0.124189\H,0,-8.491668,1.917746,-0.696229\H,0,-8.422404,1.868759,1.08
 4316\H,0,-9.762669,1.077962,0.222194\H,0,-8.432484,-1.862718,0.990876\
 H,0,-8.506737,-1.821219,-0.789689\H,0,-9.76963,-1.020469,0.17373\\Vers
 ion=EM64L-G09RevD.01\State=1-A\HF=-2158.2648285\RMSD=5.378e-09\Dipole=
 1.4591166,-0.011075,0.1677487\Polar=920.2264313,-0.4723464,689.4837067
 ,2.5930655,3.0363708,242.8883007\HyperPolar=49559.760088,-155.1288468,
 1912.2647253,-9.9183998,-269.038332,-17.8957108,-70.5961888,-71.084232
 2,-0.3891179,-21.5665046\Quadrupole=33.9675985,-5.9369451,-28.0306534,
 -0.1207575,-0.9586529,0.7582228\PG=C01 [X(C28H17F8N3Pt1)]\\@


 CONFIDENCE IS WHAT YOU FEEL BEFORE YOU FULLY
 COMPREHEND THE SITUATION.
 Job cpu time:       1 days 11 hours 24 minutes  7.9 seconds.
 File lengths (MBytes):  RWF=   4006 Int=      0 D2E=      0 Chk=     22 Scr=      1
 Normal termination of Gaussian 09 at Fri Apr  7 22:44:14 2023.
