 Entering Gaussian System, Link 0=g09
 Input=OPT_B3LYP_LANL2TZF_def2SVP_ONL_B3LYP_LANL2TZF_CCPVDZ_IEFPCM.com
 Output=OPT_B3LYP_LANL2TZF_def2SVP_ONL_B3LYP_LANL2TZF_CCPVDZ_IEFPCM.log
 Initial command:
 /home/scr/programs/g09/l1.exe "/home/scr/guest/Gau-17364.inp" -scrdir="/home/scr/guest/"
 Entering Link 1 = /home/scr/programs/g09/l1.exe PID=     17365.
  
 Copyright (c) 1988,1990,1992,1993,1995,1998,2003,2009,2013,
            Gaussian, Inc.  All Rights Reserved.
  
 This is part of the Gaussian(R) 09 program.  It is based on
 the Gaussian(R) 03 system (copyright 2003, Gaussian, Inc.),
 the Gaussian(R) 98 system (copyright 1998, Gaussian, Inc.),
 the Gaussian(R) 94 system (copyright 1995, Gaussian, Inc.),
 the Gaussian 92(TM) system (copyright 1992, Gaussian, Inc.),
 the Gaussian 90(TM) system (copyright 1990, Gaussian, Inc.),
 the Gaussian 88(TM) system (copyright 1988, Gaussian, Inc.),
 the Gaussian 86(TM) system (copyright 1986, Carnegie Mellon
 University), and the Gaussian 82(TM) system (copyright 1983,
 Carnegie Mellon University). Gaussian is a federally registered
 trademark of Gaussian, Inc.
  
 This software contains proprietary and confidential information,
 including trade secrets, belonging to Gaussian, Inc.
  
 This software is provided under written license and may be
 used, copied, transmitted, or stored only in accord with that
 written license.
  
 The following legend is applicable only to US Government
 contracts under FAR:
  
                    RESTRICTED RIGHTS LEGEND
  
 Use, reproduction and disclosure by the US Government is
 subject to restrictions as set forth in subparagraphs (a)
 and (c) of the Commercial Computer Software - Restricted
 Rights clause in FAR 52.227-19.
  
 Gaussian, Inc.
 340 Quinnipiac St., Bldg. 40, Wallingford CT 06492
  
  
 ---------------------------------------------------------------
 Warning -- This program may not be used in any manner that
 competes with the business of Gaussian, Inc. or will provide
 assistance to any competitor of Gaussian, Inc.  The licensee
 of this program is prohibited from giving any competitor of
 Gaussian, Inc. access to this program.  By using this program,
 the user acknowledges that Gaussian, Inc. is engaged in the
 business of creating and licensing software in the field of
 computational chemistry and represents and warrants to the
 licensee that it is not a competitor of Gaussian, Inc. and that
 it will not use this program in any manner prohibited above.
 ---------------------------------------------------------------
  

 Cite this work as:
 Gaussian 09, Revision D.01,
 M. J. Frisch, G. W. Trucks, H. B. Schlegel, G. E. Scuseria, 
 M. A. Robb, J. R. Cheeseman, G. Scalmani, V. Barone, B. Mennucci, 
 G. A. Petersson, H. Nakatsuji, M. Caricato, X. Li, H. P. Hratchian, 
 A. F. Izmaylov, J. Bloino, G. Zheng, J. L. Sonnenberg, M. Hada, 
 M. Ehara, K. Toyota, R. Fukuda, J. Hasegawa, M. Ishida, T. Nakajima, 
 Y. Honda, O. Kitao, H. Nakai, T. Vreven, J. A. Montgomery, Jr., 
 J. E. Peralta, F. Ogliaro, M. Bearpark, J. J. Heyd, E. Brothers, 
 K. N. Kudin, V. N. Staroverov, T. Keith, R. Kobayashi, J. Normand, 
 K. Raghavachari, A. Rendell, J. C. Burant, S. S. Iyengar, J. Tomasi, 
 M. Cossi, N. Rega, J. M. Millam, M. Klene, J. E. Knox, J. B. Cross, 
 V. Bakken, C. Adamo, J. Jaramillo, R. Gomperts, R. E. Stratmann, 
 O. Yazyev, A. J. Austin, R. Cammi, C. Pomelli, J. W. Ochterski, 
 R. L. Martin, K. Morokuma, V. G. Zakrzewski, G. A. Voth, 
 P. Salvador, J. J. Dannenberg, S. Dapprich, A. D. Daniels, 
 O. Farkas, J. B. Foresman, J. V. Ortiz, J. Cioslowski, 
 and D. J. Fox, Gaussian, Inc., Wallingford CT, 2013.
 
 ******************************************
 Gaussian 09:  EM64L-G09RevD.01 24-Apr-2013
                17-May-2023 
 ******************************************
 %chk=OPT_B3LYP_LANL2TZF_def2SVP_ONL_B3LYP_LANL2TZF_CCPVDZ_IEFPCM.chk
 %mem=100Gb
 %nproc=32
 Will use up to   32 processors via shared memory.
 ----------------------------------------------------------------------
 #p B3LYP/gen gfinput pseudo=read Integral(Grid=UltraFine,Acc2E=12) scf
 =maxcycle=200 Polar=(DCSHG) CPHF=RdFreq scrf=(iefpcm,read,solvent=n,n-
 DiMethylFormamide)
 ----------------------------------------------------------------------
 1/38=1,40=2,83=1/1;
 2/12=2,17=6,18=5,40=1/2;
 3/5=7,11=2,16=1,17=8,24=10,25=1,30=1,70=2203,72=148,74=-5,75=-5/1,2,3;
 4//1;
 5/5=2,7=200,38=5,53=148,87=12,98=1/2;
 8/6=4,10=90,11=11,87=12/1;
 10/6=20001,13=10,72=3,87=12/2;
 6/7=2,8=2,9=2,10=2,28=1/1;
 99/5=1,9=1/99;
 Leave Link    1 at Wed May 17 23:58:48 2023, MaxMem= 13421772800 cpu:       169.0
 (Enter /home/scr/programs/g09/l101.exe)
 ------------------------------
 Primeira Hiperpolarizabilidade
 ------------------------------
 Symbolic Z-matrix:
 Charge =  0 Multiplicity = 1
 Pt                    1.0081   -0.00255  -0.02356 
 C                    -1.04078   0.00667  -0.07373 
 N                     1.35187  -2.03059  -0.02185 
 N                     1.37195   2.02225  -0.00871 
 C                     0.42876   2.9754   -0.0466 
 C                     0.39875  -2.97363  -0.06368 
 C                     2.70906   2.3705    0.04229 
 C                     2.68544  -2.39287   0.02215 
 C                     3.6128   -1.25833   0.06303 
 C                     3.62504   1.22648   0.07416 
 C                     5.02689   1.18464   0.12331 
 C                     3.07234   3.72496   0.0588 
 C                     2.09234   4.70973   0.02042 
 C                     0.74498   4.33084  -0.03545 
 C                     5.01499  -1.23065   0.11219 
 C                     5.7236   -0.02658   0.14266 
 C                     3.03492  -3.75115   0.02021 
 C                     2.04475  -4.72543  -0.02492 
 H                     4.08676  -4.0289    0.05196 
 C                     0.70094  -4.33219  -0.06618 
 C                     2.95855  -0.01254   0.04588 
 F                     5.72123  -2.36992   0.13039 
 F                     5.74431   2.31672   0.15226 
 H                    -0.62808  -2.6083   -0.09853 
 C                    -0.39846  -5.36228  -0.08682 
 H                     2.31787  -5.78251  -0.03083 
 H                    -0.60188   2.62101  -0.08328 
 C                    -0.34106   5.37277  -0.10801 
 H                     4.12664   3.99134   0.10292 
 H                     2.37574   5.7639    0.03746 
 C                    -2.27739   0.01005  -0.06064 
 C                    -3.7078    0.01389  -0.02819 
 C                    -4.44752   1.2181    0.024 
 C                    -4.45558  -1.18648  -0.03458 
 C                    -5.83709   1.22951   0.07193 
 C                    -5.84524  -1.19085   0.01257 
 C                    -6.58549   0.02116   0.0702 
 N                    -7.96181   0.02453   0.1228 
 H                     6.81301  -0.03213   0.18034 
 F                    -0.16412   6.32902   0.82111 
 F                    -1.56197   4.84579   0.07846 
 F                    -0.35116   5.99213  -1.30357 
 F                    -1.6      -4.81585  -0.33354 
 F                    -0.48758  -6.01089   1.08971 
 F                    -0.17597  -6.29735  -1.02779 
 H                    -3.91053   2.17037   0.02984 
 H                    -6.34682   2.1915    0.11298 
 H                    -6.36157  -2.1502    0.00596 
 H                    -3.92501  -2.14148  -0.07572 
 C                    -8.68538   1.28051   0.18596 
 C                    -8.69384  -1.22815   0.12419 
 H                    -8.49167   1.91775  -0.69623 
 H                    -8.4224    1.86876   1.08432 
 H                    -9.76267   1.07796   0.22219 
 H                    -8.43248  -1.86272   0.99088 
 H                    -8.50674  -1.82122  -0.78969 
 H                    -9.76963  -1.02047   0.17373 
 
 NAtoms=     57 NQM=       57 NQMF=       0 NMMI=      0 NMMIF=      0
                NMic=       0 NMicF=      0.
                    Isotopes and Nuclear Properties:
 (Nuclear quadrupole moments (NQMom) in fm**2, nuclear magnetic moments (NMagM)
  in nuclear magnetons)

  Atom         1           2           3           4           5           6           7           8           9          10
 IAtWgt=         195          12          14          14          12          12          12          12          12          12
 AtmWgt= 194.9648000  12.0000000  14.0030740  14.0030740  12.0000000  12.0000000  12.0000000  12.0000000  12.0000000  12.0000000
 NucSpn=           1           0           2           2           0           0           0           0           0           0
 AtZEff=   0.0000000   0.0000000   0.0000000   0.0000000   0.0000000   0.0000000   0.0000000   0.0000000   0.0000000   0.0000000
 NQMom=    0.0000000   0.0000000   2.0440000   2.0440000   0.0000000   0.0000000   0.0000000   0.0000000   0.0000000   0.0000000
 NMagM=    0.6095000   0.0000000   0.4037610   0.4037610   0.0000000   0.0000000   0.0000000   0.0000000   0.0000000   0.0000000
 AtZNuc=  78.0000000   6.0000000   7.0000000   7.0000000   6.0000000   6.0000000   6.0000000   6.0000000   6.0000000   6.0000000

  Atom        11          12          13          14          15          16          17          18          19          20
 IAtWgt=          12          12          12          12          12          12          12          12           1          12
 AtmWgt=  12.0000000  12.0000000  12.0000000  12.0000000  12.0000000  12.0000000  12.0000000  12.0000000   1.0078250  12.0000000
 NucSpn=           0           0           0           0           0           0           0           0           1           0
 AtZEff=   0.0000000   0.0000000   0.0000000   0.0000000   0.0000000   0.0000000   0.0000000   0.0000000   0.0000000   0.0000000
 NQMom=    0.0000000   0.0000000   0.0000000   0.0000000   0.0000000   0.0000000   0.0000000   0.0000000   0.0000000   0.0000000
 NMagM=    0.0000000   0.0000000   0.0000000   0.0000000   0.0000000   0.0000000   0.0000000   0.0000000   2.7928460   0.0000000
 AtZNuc=   6.0000000   6.0000000   6.0000000   6.0000000   6.0000000   6.0000000   6.0000000   6.0000000   1.0000000   6.0000000

  Atom        21          22          23          24          25          26          27          28          29          30
 IAtWgt=          12          19          19           1          12           1           1          12           1           1
 AtmWgt=  12.0000000  18.9984033  18.9984033   1.0078250  12.0000000   1.0078250   1.0078250  12.0000000   1.0078250   1.0078250
 NucSpn=           0           1           1           1           0           1           1           0           1           1
 AtZEff=   0.0000000   0.0000000   0.0000000   0.0000000   0.0000000   0.0000000   0.0000000   0.0000000   0.0000000   0.0000000
 NQMom=    0.0000000   0.0000000   0.0000000   0.0000000   0.0000000   0.0000000   0.0000000   0.0000000   0.0000000   0.0000000
 NMagM=    0.0000000   2.6288670   2.6288670   2.7928460   0.0000000   2.7928460   2.7928460   0.0000000   2.7928460   2.7928460
 AtZNuc=   6.0000000   9.0000000   9.0000000   1.0000000   6.0000000   1.0000000   1.0000000   6.0000000   1.0000000   1.0000000

  Atom        31          32          33          34          35          36          37          38          39          40
 IAtWgt=          12          12          12          12          12          12          12          14           1          19
 AtmWgt=  12.0000000  12.0000000  12.0000000  12.0000000  12.0000000  12.0000000  12.0000000  14.0030740   1.0078250  18.9984033
 NucSpn=           0           0           0           0           0           0           0           2           1           1
 AtZEff=   0.0000000   0.0000000   0.0000000   0.0000000   0.0000000   0.0000000   0.0000000   0.0000000   0.0000000   0.0000000
 NQMom=    0.0000000   0.0000000   0.0000000   0.0000000   0.0000000   0.0000000   0.0000000   2.0440000   0.0000000   0.0000000
 NMagM=    0.0000000   0.0000000   0.0000000   0.0000000   0.0000000   0.0000000   0.0000000   0.4037610   2.7928460   2.6288670
 AtZNuc=   6.0000000   6.0000000   6.0000000   6.0000000   6.0000000   6.0000000   6.0000000   7.0000000   1.0000000   9.0000000

  Atom        41          42          43          44          45          46          47          48          49          50
 IAtWgt=          19          19          19          19          19           1           1           1           1          12
 AtmWgt=  18.9984033  18.9984033  18.9984033  18.9984033  18.9984033   1.0078250   1.0078250   1.0078250   1.0078250  12.0000000
 NucSpn=           1           1           1           1           1           1           1           1           1           0
 AtZEff=   0.0000000   0.0000000   0.0000000   0.0000000   0.0000000   0.0000000   0.0000000   0.0000000   0.0000000   0.0000000
 NQMom=    0.0000000   0.0000000   0.0000000   0.0000000   0.0000000   0.0000000   0.0000000   0.0000000   0.0000000   0.0000000
 NMagM=    2.6288670   2.6288670   2.6288670   2.6288670   2.6288670   2.7928460   2.7928460   2.7928460   2.7928460   0.0000000
 AtZNuc=   9.0000000   9.0000000   9.0000000   9.0000000   9.0000000   1.0000000   1.0000000   1.0000000   1.0000000   6.0000000

  Atom        51          52          53          54          55          56          57
 IAtWgt=          12           1           1           1           1           1           1
 AtmWgt=  12.0000000   1.0078250   1.0078250   1.0078250   1.0078250   1.0078250   1.0078250
 NucSpn=           0           1           1           1           1           1           1
 AtZEff=   0.0000000   0.0000000   0.0000000   0.0000000   0.0000000   0.0000000   0.0000000
 NQMom=    0.0000000   0.0000000   0.0000000   0.0000000   0.0000000   0.0000000   0.0000000
 NMagM=    0.0000000   2.7928460   2.7928460   2.7928460   2.7928460   2.7928460   2.7928460
 AtZNuc=   6.0000000   1.0000000   1.0000000   1.0000000   1.0000000   1.0000000   1.0000000
 Using perturbation frequencies:    0.000000    0.023893
 Leave Link  101 at Wed May 17 23:58:48 2023, MaxMem= 13421772800 cpu:         4.4
 (Enter /home/scr/programs/g09/l202.exe)
 Stoichiometry    C28H17F8N3Pt
 Framework group  C1[X(C28H17F8N3Pt)]
 Deg. of freedom   165
 Full point group                 C1      NOp   1
 Largest Abelian subgroup         C1      NOp   1
 Largest concise Abelian subgroup C1      NOp   1
                         Standard orientation:                         
 ---------------------------------------------------------------------
 Center     Atomic      Atomic             Coordinates (Angstroms)
 Number     Number       Type             X           Y           Z
 ---------------------------------------------------------------------
      1         78           0       -1.008098   -0.002554    0.023564
      2          6           0        1.040778    0.006667    0.073725
      3          7           0       -1.351872   -2.030588    0.021851
      4          7           0       -1.371945    2.022246    0.008714
      5          6           0       -0.428755    2.975399    0.046602
      6          6           0       -0.398749   -2.973631    0.063676
      7          6           0       -2.709059    2.370497   -0.042286
      8          6           0       -2.685437   -2.392870   -0.022148
      9          6           0       -3.612802   -1.258328   -0.063032
     10          6           0       -3.625038    1.226485   -0.074159
     11          6           0       -5.026887    1.184638   -0.123314
     12          6           0       -3.072336    3.724957   -0.058798
     13          6           0       -2.092344    4.709726   -0.020417
     14          6           0       -0.744979    4.330839    0.035451
     15          6           0       -5.014989   -1.230646   -0.112194
     16          6           0       -5.723602   -0.026574   -0.142658
     17          6           0       -3.034925   -3.751150   -0.020208
     18          6           0       -2.044755   -4.725434    0.024916
     19          1           0       -4.086756   -4.028898   -0.051962
     20          6           0       -0.700943   -4.332187    0.066180
     21          6           0       -2.958548   -0.012536   -0.045884
     22          9           0       -5.721231   -2.369921   -0.130392
     23          9           0       -5.744306    2.316719   -0.152261
     24          1           0        0.628075   -2.608296    0.098527
     25          6           0        0.398456   -5.362280    0.086817
     26          1           0       -2.317869   -5.782506    0.030833
     27          1           0        0.601877    2.621014    0.083278
     28          6           0        0.341059    5.372771    0.108014
     29          1           0       -4.126636    3.991341   -0.102923
     30          1           0       -2.375743    5.763900   -0.037457
     31          6           0        2.277388    0.010047    0.060642
     32          6           0        3.707803    0.013889    0.028194
     33          6           0        4.447523    1.218101   -0.023999
     34          6           0        4.455580   -1.186484    0.034584
     35          6           0        5.837091    1.229508   -0.071927
     36          6           0        5.845235   -1.190853   -0.012570
     37          6           0        6.585491    0.021156   -0.070201
     38          7           0        7.961809    0.024529   -0.122795
     39          1           0       -6.813007   -0.032125   -0.180343
     40          9           0        0.164122    6.329015   -0.821111
     41          9           0        1.561974    4.845788   -0.078463
     42          9           0        0.351159    5.992134    1.303574
     43          9           0        1.600000   -4.815854    0.333542
     44          9           0        0.487574   -6.010889   -1.089708
     45          9           0        0.175966   -6.297350    1.027787
     46          1           0        3.910527    2.170366   -0.029839
     47          1           0        6.346824    2.191499   -0.112978
     48          1           0        6.361574   -2.150201   -0.005956
     49          1           0        3.925014   -2.141478    0.075718
     50          6           0        8.685382    1.280513   -0.185956
     51          6           0        8.693844   -1.228146   -0.124189
     52          1           0        8.491668    1.917745    0.696229
     53          1           0        8.422404    1.868758   -1.084316
     54          1           0        9.762669    1.077961   -0.222194
     55          1           0        8.432484   -1.862719   -0.990876
     56          1           0        8.506737   -1.821220    0.789689
     57          1           0        9.769630   -1.020470   -0.173730
 ---------------------------------------------------------------------
 Rotational constants (GHZ):      0.0734786      0.0557567      0.0320899
 Leave Link  202 at Wed May 17 23:58:48 2023, MaxMem= 13421772800 cpu:         2.0
 (Enter /home/scr/programs/g09/l301.exe)
 General basis read from cards:  (5D, 7F)
 Centers:      19     24     26     27     29     30     39     46     47     48
 Centers:      49     52     53     54     55     56     57
 S 4 1.00
     Exponent=  1.3010000000D+01 Coefficients=  1.9685000000D-02
     Exponent=  1.9620000000D+00 Coefficients=  1.3797700000D-01
     Exponent=  4.4460000000D-01 Coefficients=  4.7814800000D-01
     Exponent=  1.2200000000D-01 Coefficients=  5.0124000000D-01
 S 1 1.00
     Exponent=  1.2200000000D-01 Coefficients=  1.0000000000D+00
 P 1 1.00
     Exponent=  7.2700000000D-01 Coefficients=  1.0000000000D+00
 ****
 Centers:       2      5      6      7      8      9     10     11     12     13
 Centers:      14     15     16     17     18     20     21     25     28     31
 Centers:      32     33     34     35     36     37     50     51
 S 9 1.00
     Exponent=  6.6650000000D+03 Coefficients=  6.9200000000D-04
     Exponent=  1.0000000000D+03 Coefficients=  5.3290000000D-03
     Exponent=  2.2800000000D+02 Coefficients=  2.7077000000D-02
     Exponent=  6.4710000000D+01 Coefficients=  1.0171800000D-01
     Exponent=  2.1060000000D+01 Coefficients=  2.7474000000D-01
     Exponent=  7.4950000000D+00 Coefficients=  4.4856400000D-01
     Exponent=  2.7970000000D+00 Coefficients=  2.8507400000D-01
     Exponent=  5.2150000000D-01 Coefficients=  1.5204000000D-02
     Exponent=  1.5960000000D-01 Coefficients= -3.1910000000D-03
 S 9 1.00
     Exponent=  6.6650000000D+03 Coefficients= -1.4600000000D-04
     Exponent=  1.0000000000D+03 Coefficients= -1.1540000000D-03
     Exponent=  2.2800000000D+02 Coefficients= -5.7250000000D-03
     Exponent=  6.4710000000D+01 Coefficients= -2.3312000000D-02
     Exponent=  2.1060000000D+01 Coefficients= -6.3955000000D-02
     Exponent=  7.4950000000D+00 Coefficients= -1.4998100000D-01
     Exponent=  2.7970000000D+00 Coefficients= -1.2726200000D-01
     Exponent=  5.2150000000D-01 Coefficients=  5.4452900000D-01
     Exponent=  1.5960000000D-01 Coefficients=  5.8049600000D-01
 S 1 1.00
     Exponent=  1.5960000000D-01 Coefficients=  1.0000000000D+00
 P 4 1.00
     Exponent=  9.4390000000D+00 Coefficients=  3.8109000000D-02
     Exponent=  2.0020000000D+00 Coefficients=  2.0948000000D-01
     Exponent=  5.4560000000D-01 Coefficients=  5.0855700000D-01
     Exponent=  1.5170000000D-01 Coefficients=  4.6884200000D-01
 P 1 1.00
     Exponent=  1.5170000000D-01 Coefficients=  1.0000000000D+00
 D 1 1.00
     Exponent=  5.5000000000D-01 Coefficients=  1.0000000000D+00
 ****
 Centers:       3      4     38
 S 9 1.00
     Exponent=  9.0460000000D+03 Coefficients=  7.0000000000D-04
     Exponent=  1.3570000000D+03 Coefficients=  5.3890000000D-03
     Exponent=  3.0930000000D+02 Coefficients=  2.7406000000D-02
     Exponent=  8.7730000000D+01 Coefficients=  1.0320700000D-01
     Exponent=  2.8560000000D+01 Coefficients=  2.7872300000D-01
     Exponent=  1.0210000000D+01 Coefficients=  4.4854000000D-01
     Exponent=  3.8380000000D+00 Coefficients=  2.7823800000D-01
     Exponent=  7.4660000000D-01 Coefficients=  1.5440000000D-02
     Exponent=  2.2480000000D-01 Coefficients= -2.8640000000D-03
 S 9 1.00
     Exponent=  9.0460000000D+03 Coefficients= -1.5300000000D-04
     Exponent=  1.3570000000D+03 Coefficients= -1.2080000000D-03
     Exponent=  3.0930000000D+02 Coefficients= -5.9920000000D-03
     Exponent=  8.7730000000D+01 Coefficients= -2.4544000000D-02
     Exponent=  2.8560000000D+01 Coefficients= -6.7459000000D-02
     Exponent=  1.0210000000D+01 Coefficients= -1.5807800000D-01
     Exponent=  3.8380000000D+00 Coefficients= -1.2183100000D-01
     Exponent=  7.4660000000D-01 Coefficients=  5.4900300000D-01
     Exponent=  2.2480000000D-01 Coefficients=  5.7881500000D-01
 S 1 1.00
     Exponent=  2.2480000000D-01 Coefficients=  1.0000000000D+00
 P 4 1.00
     Exponent=  1.3550000000D+01 Coefficients=  3.9919000000D-02
     Exponent=  2.9170000000D+00 Coefficients=  2.1716900000D-01
     Exponent=  7.9730000000D-01 Coefficients=  5.1031900000D-01
     Exponent=  2.1850000000D-01 Coefficients=  4.6221400000D-01
 P 1 1.00
     Exponent=  2.1850000000D-01 Coefficients=  1.0000000000D+00
 D 1 1.00
     Exponent=  8.1700000000D-01 Coefficients=  1.0000000000D+00
 ****
 Centers:      22     23     40     41     42     43     44     45
 S 9 1.00
     Exponent=  1.4710000000D+04 Coefficients=  7.2100000000D-04
     Exponent=  2.2070000000D+03 Coefficients=  5.5530000000D-03
     Exponent=  5.0280000000D+02 Coefficients=  2.8267000000D-02
     Exponent=  1.4260000000D+02 Coefficients=  1.0644400000D-01
     Exponent=  4.6470000000D+01 Coefficients=  2.8681400000D-01
     Exponent=  1.6700000000D+01 Coefficients=  4.4864100000D-01
     Exponent=  6.3560000000D+00 Coefficients=  2.6476100000D-01
     Exponent=  1.3160000000D+00 Coefficients=  1.5333000000D-02
     Exponent=  3.8970000000D-01 Coefficients= -2.3320000000D-03
 S 9 1.00
     Exponent=  1.4710000000D+04 Coefficients= -1.6500000000D-04
     Exponent=  2.2070000000D+03 Coefficients= -1.3080000000D-03
     Exponent=  5.0280000000D+02 Coefficients= -6.4950000000D-03
     Exponent=  1.4260000000D+02 Coefficients= -2.6691000000D-02
     Exponent=  4.6470000000D+01 Coefficients= -7.3690000000D-02
     Exponent=  1.6700000000D+01 Coefficients= -1.7077600000D-01
     Exponent=  6.3560000000D+00 Coefficients= -1.1232700000D-01
     Exponent=  1.3160000000D+00 Coefficients=  5.6281400000D-01
     Exponent=  3.8970000000D-01 Coefficients=  5.6877800000D-01
 S 1 1.00
     Exponent=  3.8970000000D-01 Coefficients=  1.0000000000D+00
 P 4 1.00
     Exponent=  2.2670000000D+01 Coefficients=  4.4878000000D-02
     Exponent=  4.9770000000D+00 Coefficients=  2.3571800000D-01
     Exponent=  1.3470000000D+00 Coefficients=  5.0852100000D-01
     Exponent=  3.4710000000D-01 Coefficients=  4.5812000000D-01
 P 1 1.00
     Exponent=  3.4710000000D-01 Coefficients=  1.0000000000D+00
 D 1 1.00
     Exponent=  1.6400000000D+00 Coefficients=  1.0000000000D+00
 ****
 Centers:       1
 S 1 1.00
     Exponent=  2.5470000000D+00 Coefficients=  1.0000000000D+00
 S 1 1.00
     Exponent=  1.6140000000D+00 Coefficients=  1.0000000000D+00
 S 1 1.00
     Exponent=  5.1670000000D-01 Coefficients=  1.0000000000D+00
 S 1 1.00
     Exponent=  2.6510000000D-01 Coefficients=  1.0000000000D+00
 S 1 1.00
     Exponent=  5.8000000000D-02 Coefficients=  1.0000000000D+00
 P 1 1.00
     Exponent=  2.9110000000D+00 Coefficients=  1.0000000000D+00
 P 1 1.00
     Exponent=  1.8360000000D+00 Coefficients=  1.0000000000D+00
 P 1 1.00
     Exponent=  5.9820000000D-01 Coefficients=  1.0000000000D+00
 P 1 1.00
     Exponent=  9.9600000000D-02 Coefficients=  1.0000000000D+00
 P 1 1.00
     Exponent=  2.9000000000D-02 Coefficients=  1.0000000000D+00
 D 1 1.00
     Exponent=  1.2430000000D+00 Coefficients=  1.0000000000D+00
 D 1 1.00
     Exponent=  4.2710000000D-01 Coefficients=  1.0000000000D+00
 D 1 1.00
     Exponent=  1.3700000000D-01 Coefficients=  1.0000000000D+00
 F 1 1.00
     Exponent=  9.9300000000D-01 Coefficients=  1.0000000000D+00
 ****
 ======================================================================================================
                                       Pseudopotential Parameters
 ======================================================================================================
  Center     Atomic      Valence      Angular      Power
  Number     Number     Electrons     Momentum     of R      Exponent        Coefficient   SO-Coeffient
 ======================================================================================================
    1         78           18
                                      G and up 
                                                     1      728.9394056       -0.16192680    0.00000000
                                                     2      320.6567800    -1320.28738520    0.00000000
                                                     2       52.8680174     -298.31781350    0.00000000
                                                     2       12.0280128      -87.58370650    0.00000000
                                                     2        3.5238913       -8.14932740    0.00000000
                                      S - G
                                                     0      409.4437358        2.73342180    0.00000000
                                                     1      274.5419231       59.70243290    0.00000000
                                                     2      127.5658570      891.45895500    0.00000000
                                                     2       32.9036631      368.44676560    0.00000000
                                                     2        5.0593880      238.02630900    0.00000000
                                                     2        4.1506556     -107.05564540    0.00000000
                                      P - G
                                                     0      466.1728892        1.88785680    0.00000000
                                                     1      120.7888259       76.01386290    0.00000000
                                                     2       36.4118791      343.55111160    0.00000000
                                                     2        5.6985408      119.49117860    0.00000000
                                      D - G
                                                     0      249.5650763        2.93436780    0.00000000
                                                     1      126.6678585       59.33065710    0.00000000
                                                     2       63.1430586      452.44451940    0.00000000
                                                     2       17.9059470      210.47694790    0.00000000
                                                     2        4.2239373       58.62541120    0.00000000
                                      F - G
                                                     0      121.8158799        3.95342530    0.00000000
                                                     1       60.8757030       53.85551820    0.00000000
                                                     2       31.4767147      247.43051330    0.00000000
                                                     2        9.8811751      127.81879760    0.00000000
                                                     2        2.7319874       15.37720460    0.00000000
    2          6
                                   No pseudopotential on this center.
    3          7
                                   No pseudopotential on this center.
    4          7
                                   No pseudopotential on this center.
    5          6
                                   No pseudopotential on this center.
    6          6
                                   No pseudopotential on this center.
    7          6
                                   No pseudopotential on this center.
    8          6
                                   No pseudopotential on this center.
    9          6
                                   No pseudopotential on this center.
   10          6
                                   No pseudopotential on this center.
   11          6
                                   No pseudopotential on this center.
   12          6
                                   No pseudopotential on this center.
   13          6
                                   No pseudopotential on this center.
   14          6
                                   No pseudopotential on this center.
   15          6
                                   No pseudopotential on this center.
   16          6
                                   No pseudopotential on this center.
   17          6
                                   No pseudopotential on this center.
   18          6
                                   No pseudopotential on this center.
   19          1
                                   No pseudopotential on this center.
   20          6
                                   No pseudopotential on this center.
   21          6
                                   No pseudopotential on this center.
   22          9
                                   No pseudopotential on this center.
   23          9
                                   No pseudopotential on this center.
   24          1
                                   No pseudopotential on this center.
   25          6
                                   No pseudopotential on this center.
   26          1
                                   No pseudopotential on this center.
   27          1
                                   No pseudopotential on this center.
   28          6
                                   No pseudopotential on this center.
   29          1
                                   No pseudopotential on this center.
   30          1
                                   No pseudopotential on this center.
   31          6
                                   No pseudopotential on this center.
   32          6
                                   No pseudopotential on this center.
   33          6
                                   No pseudopotential on this center.
   34          6
                                   No pseudopotential on this center.
   35          6
                                   No pseudopotential on this center.
   36          6
                                   No pseudopotential on this center.
   37          6
                                   No pseudopotential on this center.
   38          7
                                   No pseudopotential on this center.
   39          1
                                   No pseudopotential on this center.
   40          9
                                   No pseudopotential on this center.
   41          9
                                   No pseudopotential on this center.
   42          9
                                   No pseudopotential on this center.
   43          9
                                   No pseudopotential on this center.
   44          9
                                   No pseudopotential on this center.
   45          9
                                   No pseudopotential on this center.
   46          1
                                   No pseudopotential on this center.
   47          1
                                   No pseudopotential on this center.
   48          1
                                   No pseudopotential on this center.
   49          1
                                   No pseudopotential on this center.
   50          6
                                   No pseudopotential on this center.
   51          6
                                   No pseudopotential on this center.
   52          1
                                   No pseudopotential on this center.
   53          1
                                   No pseudopotential on this center.
   54          1
                                   No pseudopotential on this center.
   55          1
                                   No pseudopotential on this center.
   56          1
                                   No pseudopotential on this center.
   57          1
                                   No pseudopotential on this center.
 ======================================================================================================
 Ernie: Thresh=  0.10000D-02 Tol=  0.10000D-05 Strict=F.
 Ernie:  117 primitive shells out of 1091 were deleted.
 AO basis set in the form of general basis input (Overlap normalization):
      1 0
 S   1 1.00       0.000000000000
      0.2547000000D+01  0.1000000000D+01
 S   1 1.00       0.000000000000
      0.1614000000D+01  0.1000000000D+01
 S   1 1.00       0.000000000000
      0.5167000000D+00  0.1000000000D+01
 S   1 1.00       0.000000000000
      0.2651000000D+00  0.1000000000D+01
 S   1 1.00       0.000000000000
      0.5800000000D-01  0.1000000000D+01
 P   1 1.00       0.000000000000
      0.2911000000D+01  0.1000000000D+01
 P   1 1.00       0.000000000000
      0.1836000000D+01  0.1000000000D+01
 P   1 1.00       0.000000000000
      0.5982000000D+00  0.1000000000D+01
 P   1 1.00       0.000000000000
      0.9960000000D-01  0.1000000000D+01
 P   1 1.00       0.000000000000
      0.2900000000D-01  0.1000000000D+01
 D   1 1.00       0.000000000000
      0.1243000000D+01  0.1000000000D+01
 D   1 1.00       0.000000000000
      0.4271000000D+00  0.1000000000D+01
 D   1 1.00       0.000000000000
      0.1370000000D+00  0.1000000000D+01
 F   1 1.00       0.000000000000
      0.9930000000D+00  0.1000000000D+01
 ****
      2 0
 S   8 1.00       0.000000000000
      0.6665000000D+04  0.6911871665D-03
      0.1000000000D+04  0.5322577364D-02
      0.2280000000D+03  0.2704512777D-01
      0.6471000000D+02  0.1015883442D+00
      0.2106000000D+02  0.2743843617D+00
      0.7495000000D+01  0.4477328995D+00
      0.2797000000D+01  0.2843702133D+00
      0.5215000000D+00  0.1819701823D-01
 S   7 1.00       0.000000000000
      0.6665000000D+04  0.7733547404D-05
      0.2280000000D+03  0.2780721367D-03
      0.6471000000D+02 -0.2578756542D-02
      0.2106000000D+02 -0.8950876838D-02
      0.7495000000D+01 -0.1060588547D+00
      0.2797000000D+01 -0.1315176856D+00
      0.5215000000D+00  0.1099486598D+01
 S   1 1.00       0.000000000000
      0.1596000000D+00  0.1000000000D+01
 P   4 1.00       0.000000000000
      0.9439000000D+01  0.3810902127D-01
      0.2002000000D+01  0.2094801169D+00
      0.5456000000D+00  0.5085572839D+00
      0.1517000000D+00  0.4688422617D+00
 P   1 1.00       0.000000000000
      0.1517000000D+00  0.1000000000D+01
 D   1 1.00       0.000000000000
      0.5500000000D+00  0.1000000000D+01
 ****
      3 0
 S   8 1.00       0.000000000000
      0.9046000000D+04  0.6992344253D-03
      0.1357000000D+04  0.5382957142D-02
      0.3093000000D+03  0.2737601759D-01
      0.8773000000D+02  0.1030842986D+00
      0.2856000000D+02  0.2783858163D+00
      0.1021000000D+02  0.4477523650D+00
      0.3838000000D+01  0.2776317906D+00
      0.7466000000D+00  0.1815626767D-01
 S   7 1.00       0.000000000000
      0.9046000000D+04  0.7774467966D-05
      0.3093000000D+03  0.3007420716D-03
      0.8773000000D+02 -0.2800165487D-02
      0.2856000000D+02 -0.9897085049D-02
      0.1021000000D+02 -0.1143311135D+00
      0.3838000000D+01 -0.1181623826D+00
      0.7466000000D+00  0.1097868854D+01
 S   1 1.00       0.000000000000
      0.2248000000D+00  0.1000000000D+01
 P   4 1.00       0.000000000000
      0.1355000000D+02  0.3991901233D-01
      0.2917000000D+01  0.2171690671D+00
      0.7973000000D+00  0.5103191576D+00
      0.2185000000D+00  0.4622141427D+00
 P   1 1.00       0.000000000000
      0.2185000000D+00  0.1000000000D+01
 D   1 1.00       0.000000000000
      0.8170000000D+00  0.1000000000D+01
 ****
      4 0
 S   8 1.00       0.000000000000
      0.9046000000D+04  0.6992344253D-03
      0.1357000000D+04  0.5382957142D-02
      0.3093000000D+03  0.2737601759D-01
      0.8773000000D+02  0.1030842986D+00
      0.2856000000D+02  0.2783858163D+00
      0.1021000000D+02  0.4477523650D+00
      0.3838000000D+01  0.2776317906D+00
      0.7466000000D+00  0.1815626767D-01
 S   7 1.00       0.000000000000
      0.9046000000D+04  0.7774467966D-05
      0.3093000000D+03  0.3007420716D-03
      0.8773000000D+02 -0.2800165487D-02
      0.2856000000D+02 -0.9897085049D-02
      0.1021000000D+02 -0.1143311135D+00
      0.3838000000D+01 -0.1181623826D+00
      0.7466000000D+00  0.1097868854D+01
 S   1 1.00       0.000000000000
      0.2248000000D+00  0.1000000000D+01
 P   4 1.00       0.000000000000
      0.1355000000D+02  0.3991901233D-01
      0.2917000000D+01  0.2171690671D+00
      0.7973000000D+00  0.5103191576D+00
      0.2185000000D+00  0.4622141427D+00
 P   1 1.00       0.000000000000
      0.2185000000D+00  0.1000000000D+01
 D   1 1.00       0.000000000000
      0.8170000000D+00  0.1000000000D+01
 ****
      5 0
 S   8 1.00       0.000000000000
      0.6665000000D+04  0.6911871665D-03
      0.1000000000D+04  0.5322577364D-02
      0.2280000000D+03  0.2704512777D-01
      0.6471000000D+02  0.1015883442D+00
      0.2106000000D+02  0.2743843617D+00
      0.7495000000D+01  0.4477328995D+00
      0.2797000000D+01  0.2843702133D+00
      0.5215000000D+00  0.1819701823D-01
 S   7 1.00       0.000000000000
      0.6665000000D+04  0.7733547404D-05
      0.2280000000D+03  0.2780721367D-03
      0.6471000000D+02 -0.2578756542D-02
      0.2106000000D+02 -0.8950876838D-02
      0.7495000000D+01 -0.1060588547D+00
      0.2797000000D+01 -0.1315176856D+00
      0.5215000000D+00  0.1099486598D+01
 S   1 1.00       0.000000000000
      0.1596000000D+00  0.1000000000D+01
 P   4 1.00       0.000000000000
      0.9439000000D+01  0.3810902127D-01
      0.2002000000D+01  0.2094801169D+00
      0.5456000000D+00  0.5085572839D+00
      0.1517000000D+00  0.4688422617D+00
 P   1 1.00       0.000000000000
      0.1517000000D+00  0.1000000000D+01
 D   1 1.00       0.000000000000
      0.5500000000D+00  0.1000000000D+01
 ****
      6 0
 S   8 1.00       0.000000000000
      0.6665000000D+04  0.6911871665D-03
      0.1000000000D+04  0.5322577364D-02
      0.2280000000D+03  0.2704512777D-01
      0.6471000000D+02  0.1015883442D+00
      0.2106000000D+02  0.2743843617D+00
      0.7495000000D+01  0.4477328995D+00
      0.2797000000D+01  0.2843702133D+00
      0.5215000000D+00  0.1819701823D-01
 S   7 1.00       0.000000000000
      0.6665000000D+04  0.7733547404D-05
      0.2280000000D+03  0.2780721367D-03
      0.6471000000D+02 -0.2578756542D-02
      0.2106000000D+02 -0.8950876838D-02
      0.7495000000D+01 -0.1060588547D+00
      0.2797000000D+01 -0.1315176856D+00
      0.5215000000D+00  0.1099486598D+01
 S   1 1.00       0.000000000000
      0.1596000000D+00  0.1000000000D+01
 P   4 1.00       0.000000000000
      0.9439000000D+01  0.3810902127D-01
      0.2002000000D+01  0.2094801169D+00
      0.5456000000D+00  0.5085572839D+00
      0.1517000000D+00  0.4688422617D+00
 P   1 1.00       0.000000000000
      0.1517000000D+00  0.1000000000D+01
 D   1 1.00       0.000000000000
      0.5500000000D+00  0.1000000000D+01
 ****
      7 0
 S   8 1.00       0.000000000000
      0.6665000000D+04  0.6911871665D-03
      0.1000000000D+04  0.5322577364D-02
      0.2280000000D+03  0.2704512777D-01
      0.6471000000D+02  0.1015883442D+00
      0.2106000000D+02  0.2743843617D+00
      0.7495000000D+01  0.4477328995D+00
      0.2797000000D+01  0.2843702133D+00
      0.5215000000D+00  0.1819701823D-01
 S   7 1.00       0.000000000000
      0.6665000000D+04  0.7733547404D-05
      0.2280000000D+03  0.2780721367D-03
      0.6471000000D+02 -0.2578756542D-02
      0.2106000000D+02 -0.8950876838D-02
      0.7495000000D+01 -0.1060588547D+00
      0.2797000000D+01 -0.1315176856D+00
      0.5215000000D+00  0.1099486598D+01
 S   1 1.00       0.000000000000
      0.1596000000D+00  0.1000000000D+01
 P   4 1.00       0.000000000000
      0.9439000000D+01  0.3810902127D-01
      0.2002000000D+01  0.2094801169D+00
      0.5456000000D+00  0.5085572839D+00
      0.1517000000D+00  0.4688422617D+00
 P   1 1.00       0.000000000000
      0.1517000000D+00  0.1000000000D+01
 D   1 1.00       0.000000000000
      0.5500000000D+00  0.1000000000D+01
 ****
      8 0
 S   8 1.00       0.000000000000
      0.6665000000D+04  0.6911871665D-03
      0.1000000000D+04  0.5322577364D-02
      0.2280000000D+03  0.2704512777D-01
      0.6471000000D+02  0.1015883442D+00
      0.2106000000D+02  0.2743843617D+00
      0.7495000000D+01  0.4477328995D+00
      0.2797000000D+01  0.2843702133D+00
      0.5215000000D+00  0.1819701823D-01
 S   7 1.00       0.000000000000
      0.6665000000D+04  0.7733547404D-05
      0.2280000000D+03  0.2780721367D-03
      0.6471000000D+02 -0.2578756542D-02
      0.2106000000D+02 -0.8950876838D-02
      0.7495000000D+01 -0.1060588547D+00
      0.2797000000D+01 -0.1315176856D+00
      0.5215000000D+00  0.1099486598D+01
 S   1 1.00       0.000000000000
      0.1596000000D+00  0.1000000000D+01
 P   4 1.00       0.000000000000
      0.9439000000D+01  0.3810902127D-01
      0.2002000000D+01  0.2094801169D+00
      0.5456000000D+00  0.5085572839D+00
      0.1517000000D+00  0.4688422617D+00
 P   1 1.00       0.000000000000
      0.1517000000D+00  0.1000000000D+01
 D   1 1.00       0.000000000000
      0.5500000000D+00  0.1000000000D+01
 ****
      9 0
 S   8 1.00       0.000000000000
      0.6665000000D+04  0.6911871665D-03
      0.1000000000D+04  0.5322577364D-02
      0.2280000000D+03  0.2704512777D-01
      0.6471000000D+02  0.1015883442D+00
      0.2106000000D+02  0.2743843617D+00
      0.7495000000D+01  0.4477328995D+00
      0.2797000000D+01  0.2843702133D+00
      0.5215000000D+00  0.1819701823D-01
 S   7 1.00       0.000000000000
      0.6665000000D+04  0.7733547404D-05
      0.2280000000D+03  0.2780721367D-03
      0.6471000000D+02 -0.2578756542D-02
      0.2106000000D+02 -0.8950876838D-02
      0.7495000000D+01 -0.1060588547D+00
      0.2797000000D+01 -0.1315176856D+00
      0.5215000000D+00  0.1099486598D+01
 S   1 1.00       0.000000000000
      0.1596000000D+00  0.1000000000D+01
 P   4 1.00       0.000000000000
      0.9439000000D+01  0.3810902127D-01
      0.2002000000D+01  0.2094801169D+00
      0.5456000000D+00  0.5085572839D+00
      0.1517000000D+00  0.4688422617D+00
 P   1 1.00       0.000000000000
      0.1517000000D+00  0.1000000000D+01
 D   1 1.00       0.000000000000
      0.5500000000D+00  0.1000000000D+01
 ****
     10 0
 S   8 1.00       0.000000000000
      0.6665000000D+04  0.6911871665D-03
      0.1000000000D+04  0.5322577364D-02
      0.2280000000D+03  0.2704512777D-01
      0.6471000000D+02  0.1015883442D+00
      0.2106000000D+02  0.2743843617D+00
      0.7495000000D+01  0.4477328995D+00
      0.2797000000D+01  0.2843702133D+00
      0.5215000000D+00  0.1819701823D-01
 S   7 1.00       0.000000000000
      0.6665000000D+04  0.7733547404D-05
      0.2280000000D+03  0.2780721367D-03
      0.6471000000D+02 -0.2578756542D-02
      0.2106000000D+02 -0.8950876838D-02
      0.7495000000D+01 -0.1060588547D+00
      0.2797000000D+01 -0.1315176856D+00
      0.5215000000D+00  0.1099486598D+01
 S   1 1.00       0.000000000000
      0.1596000000D+00  0.1000000000D+01
 P   4 1.00       0.000000000000
      0.9439000000D+01  0.3810902127D-01
      0.2002000000D+01  0.2094801169D+00
      0.5456000000D+00  0.5085572839D+00
      0.1517000000D+00  0.4688422617D+00
 P   1 1.00       0.000000000000
      0.1517000000D+00  0.1000000000D+01
 D   1 1.00       0.000000000000
      0.5500000000D+00  0.1000000000D+01
 ****
     11 0
 S   8 1.00       0.000000000000
      0.6665000000D+04  0.6911871665D-03
      0.1000000000D+04  0.5322577364D-02
      0.2280000000D+03  0.2704512777D-01
      0.6471000000D+02  0.1015883442D+00
      0.2106000000D+02  0.2743843617D+00
      0.7495000000D+01  0.4477328995D+00
      0.2797000000D+01  0.2843702133D+00
      0.5215000000D+00  0.1819701823D-01
 S   7 1.00       0.000000000000
      0.6665000000D+04  0.7733547404D-05
      0.2280000000D+03  0.2780721367D-03
      0.6471000000D+02 -0.2578756542D-02
      0.2106000000D+02 -0.8950876838D-02
      0.7495000000D+01 -0.1060588547D+00
      0.2797000000D+01 -0.1315176856D+00
      0.5215000000D+00  0.1099486598D+01
 S   1 1.00       0.000000000000
      0.1596000000D+00  0.1000000000D+01
 P   4 1.00       0.000000000000
      0.9439000000D+01  0.3810902127D-01
      0.2002000000D+01  0.2094801169D+00
      0.5456000000D+00  0.5085572839D+00
      0.1517000000D+00  0.4688422617D+00
 P   1 1.00       0.000000000000
      0.1517000000D+00  0.1000000000D+01
 D   1 1.00       0.000000000000
      0.5500000000D+00  0.1000000000D+01
 ****
     12 0
 S   8 1.00       0.000000000000
      0.6665000000D+04  0.6911871665D-03
      0.1000000000D+04  0.5322577364D-02
      0.2280000000D+03  0.2704512777D-01
      0.6471000000D+02  0.1015883442D+00
      0.2106000000D+02  0.2743843617D+00
      0.7495000000D+01  0.4477328995D+00
      0.2797000000D+01  0.2843702133D+00
      0.5215000000D+00  0.1819701823D-01
 S   7 1.00       0.000000000000
      0.6665000000D+04  0.7733547404D-05
      0.2280000000D+03  0.2780721367D-03
      0.6471000000D+02 -0.2578756542D-02
      0.2106000000D+02 -0.8950876838D-02
      0.7495000000D+01 -0.1060588547D+00
      0.2797000000D+01 -0.1315176856D+00
      0.5215000000D+00  0.1099486598D+01
 S   1 1.00       0.000000000000
      0.1596000000D+00  0.1000000000D+01
 P   4 1.00       0.000000000000
      0.9439000000D+01  0.3810902127D-01
      0.2002000000D+01  0.2094801169D+00
      0.5456000000D+00  0.5085572839D+00
      0.1517000000D+00  0.4688422617D+00
 P   1 1.00       0.000000000000
      0.1517000000D+00  0.1000000000D+01
 D   1 1.00       0.000000000000
      0.5500000000D+00  0.1000000000D+01
 ****
     13 0
 S   8 1.00       0.000000000000
      0.6665000000D+04  0.6911871665D-03
      0.1000000000D+04  0.5322577364D-02
      0.2280000000D+03  0.2704512777D-01
      0.6471000000D+02  0.1015883442D+00
      0.2106000000D+02  0.2743843617D+00
      0.7495000000D+01  0.4477328995D+00
      0.2797000000D+01  0.2843702133D+00
      0.5215000000D+00  0.1819701823D-01
 S   7 1.00       0.000000000000
      0.6665000000D+04  0.7733547404D-05
      0.2280000000D+03  0.2780721367D-03
      0.6471000000D+02 -0.2578756542D-02
      0.2106000000D+02 -0.8950876838D-02
      0.7495000000D+01 -0.1060588547D+00
      0.2797000000D+01 -0.1315176856D+00
      0.5215000000D+00  0.1099486598D+01
 S   1 1.00       0.000000000000
      0.1596000000D+00  0.1000000000D+01
 P   4 1.00       0.000000000000
      0.9439000000D+01  0.3810902127D-01
      0.2002000000D+01  0.2094801169D+00
      0.5456000000D+00  0.5085572839D+00
      0.1517000000D+00  0.4688422617D+00
 P   1 1.00       0.000000000000
      0.1517000000D+00  0.1000000000D+01
 D   1 1.00       0.000000000000
      0.5500000000D+00  0.1000000000D+01
 ****
     14 0
 S   8 1.00       0.000000000000
      0.6665000000D+04  0.6911871665D-03
      0.1000000000D+04  0.5322577364D-02
      0.2280000000D+03  0.2704512777D-01
      0.6471000000D+02  0.1015883442D+00
      0.2106000000D+02  0.2743843617D+00
      0.7495000000D+01  0.4477328995D+00
      0.2797000000D+01  0.2843702133D+00
      0.5215000000D+00  0.1819701823D-01
 S   7 1.00       0.000000000000
      0.6665000000D+04  0.7733547404D-05
      0.2280000000D+03  0.2780721367D-03
      0.6471000000D+02 -0.2578756542D-02
      0.2106000000D+02 -0.8950876838D-02
      0.7495000000D+01 -0.1060588547D+00
      0.2797000000D+01 -0.1315176856D+00
      0.5215000000D+00  0.1099486598D+01
 S   1 1.00       0.000000000000
      0.1596000000D+00  0.1000000000D+01
 P   4 1.00       0.000000000000
      0.9439000000D+01  0.3810902127D-01
      0.2002000000D+01  0.2094801169D+00
      0.5456000000D+00  0.5085572839D+00
      0.1517000000D+00  0.4688422617D+00
 P   1 1.00       0.000000000000
      0.1517000000D+00  0.1000000000D+01
 D   1 1.00       0.000000000000
      0.5500000000D+00  0.1000000000D+01
 ****
     15 0
 S   8 1.00       0.000000000000
      0.6665000000D+04  0.6911871665D-03
      0.1000000000D+04  0.5322577364D-02
      0.2280000000D+03  0.2704512777D-01
      0.6471000000D+02  0.1015883442D+00
      0.2106000000D+02  0.2743843617D+00
      0.7495000000D+01  0.4477328995D+00
      0.2797000000D+01  0.2843702133D+00
      0.5215000000D+00  0.1819701823D-01
 S   7 1.00       0.000000000000
      0.6665000000D+04  0.7733547404D-05
      0.2280000000D+03  0.2780721367D-03
      0.6471000000D+02 -0.2578756542D-02
      0.2106000000D+02 -0.8950876838D-02
      0.7495000000D+01 -0.1060588547D+00
      0.2797000000D+01 -0.1315176856D+00
      0.5215000000D+00  0.1099486598D+01
 S   1 1.00       0.000000000000
      0.1596000000D+00  0.1000000000D+01
 P   4 1.00       0.000000000000
      0.9439000000D+01  0.3810902127D-01
      0.2002000000D+01  0.2094801169D+00
      0.5456000000D+00  0.5085572839D+00
      0.1517000000D+00  0.4688422617D+00
 P   1 1.00       0.000000000000
      0.1517000000D+00  0.1000000000D+01
 D   1 1.00       0.000000000000
      0.5500000000D+00  0.1000000000D+01
 ****
     16 0
 S   8 1.00       0.000000000000
      0.6665000000D+04  0.6911871665D-03
      0.1000000000D+04  0.5322577364D-02
      0.2280000000D+03  0.2704512777D-01
      0.6471000000D+02  0.1015883442D+00
      0.2106000000D+02  0.2743843617D+00
      0.7495000000D+01  0.4477328995D+00
      0.2797000000D+01  0.2843702133D+00
      0.5215000000D+00  0.1819701823D-01
 S   7 1.00       0.000000000000
      0.6665000000D+04  0.7733547404D-05
      0.2280000000D+03  0.2780721367D-03
      0.6471000000D+02 -0.2578756542D-02
      0.2106000000D+02 -0.8950876838D-02
      0.7495000000D+01 -0.1060588547D+00
      0.2797000000D+01 -0.1315176856D+00
      0.5215000000D+00  0.1099486598D+01
 S   1 1.00       0.000000000000
      0.1596000000D+00  0.1000000000D+01
 P   4 1.00       0.000000000000
      0.9439000000D+01  0.3810902127D-01
      0.2002000000D+01  0.2094801169D+00
      0.5456000000D+00  0.5085572839D+00
      0.1517000000D+00  0.4688422617D+00
 P   1 1.00       0.000000000000
      0.1517000000D+00  0.1000000000D+01
 D   1 1.00       0.000000000000
      0.5500000000D+00  0.1000000000D+01
 ****
     17 0
 S   8 1.00       0.000000000000
      0.6665000000D+04  0.6911871665D-03
      0.1000000000D+04  0.5322577364D-02
      0.2280000000D+03  0.2704512777D-01
      0.6471000000D+02  0.1015883442D+00
      0.2106000000D+02  0.2743843617D+00
      0.7495000000D+01  0.4477328995D+00
      0.2797000000D+01  0.2843702133D+00
      0.5215000000D+00  0.1819701823D-01
 S   7 1.00       0.000000000000
      0.6665000000D+04  0.7733547404D-05
      0.2280000000D+03  0.2780721367D-03
      0.6471000000D+02 -0.2578756542D-02
      0.2106000000D+02 -0.8950876838D-02
      0.7495000000D+01 -0.1060588547D+00
      0.2797000000D+01 -0.1315176856D+00
      0.5215000000D+00  0.1099486598D+01
 S   1 1.00       0.000000000000
      0.1596000000D+00  0.1000000000D+01
 P   4 1.00       0.000000000000
      0.9439000000D+01  0.3810902127D-01
      0.2002000000D+01  0.2094801169D+00
      0.5456000000D+00  0.5085572839D+00
      0.1517000000D+00  0.4688422617D+00
 P   1 1.00       0.000000000000
      0.1517000000D+00  0.1000000000D+01
 D   1 1.00       0.000000000000
      0.5500000000D+00  0.1000000000D+01
 ****
     18 0
 S   8 1.00       0.000000000000
      0.6665000000D+04  0.6911871665D-03
      0.1000000000D+04  0.5322577364D-02
      0.2280000000D+03  0.2704512777D-01
      0.6471000000D+02  0.1015883442D+00
      0.2106000000D+02  0.2743843617D+00
      0.7495000000D+01  0.4477328995D+00
      0.2797000000D+01  0.2843702133D+00
      0.5215000000D+00  0.1819701823D-01
 S   7 1.00       0.000000000000
      0.6665000000D+04  0.7733547404D-05
      0.2280000000D+03  0.2780721367D-03
      0.6471000000D+02 -0.2578756542D-02
      0.2106000000D+02 -0.8950876838D-02
      0.7495000000D+01 -0.1060588547D+00
      0.2797000000D+01 -0.1315176856D+00
      0.5215000000D+00  0.1099486598D+01
 S   1 1.00       0.000000000000
      0.1596000000D+00  0.1000000000D+01
 P   4 1.00       0.000000000000
      0.9439000000D+01  0.3810902127D-01
      0.2002000000D+01  0.2094801169D+00
      0.5456000000D+00  0.5085572839D+00
      0.1517000000D+00  0.4688422617D+00
 P   1 1.00       0.000000000000
      0.1517000000D+00  0.1000000000D+01
 D   1 1.00       0.000000000000
      0.5500000000D+00  0.1000000000D+01
 ****
     19 0
 S   4 1.00       0.000000000000
      0.1301000000D+02  0.1968498999D-01
      0.1962000000D+01  0.1379769298D+00
      0.4446000000D+00  0.4781477569D+00
      0.1220000000D+00  0.5012397451D+00
 S   1 1.00       0.000000000000
      0.1220000000D+00  0.1000000000D+01
 P   1 1.00       0.000000000000
      0.7270000000D+00  0.1000000000D+01
 ****
     20 0
 S   8 1.00       0.000000000000
      0.6665000000D+04  0.6911871665D-03
      0.1000000000D+04  0.5322577364D-02
      0.2280000000D+03  0.2704512777D-01
      0.6471000000D+02  0.1015883442D+00
      0.2106000000D+02  0.2743843617D+00
      0.7495000000D+01  0.4477328995D+00
      0.2797000000D+01  0.2843702133D+00
      0.5215000000D+00  0.1819701823D-01
 S   7 1.00       0.000000000000
      0.6665000000D+04  0.7733547404D-05
      0.2280000000D+03  0.2780721367D-03
      0.6471000000D+02 -0.2578756542D-02
      0.2106000000D+02 -0.8950876838D-02
      0.7495000000D+01 -0.1060588547D+00
      0.2797000000D+01 -0.1315176856D+00
      0.5215000000D+00  0.1099486598D+01
 S   1 1.00       0.000000000000
      0.1596000000D+00  0.1000000000D+01
 P   4 1.00       0.000000000000
      0.9439000000D+01  0.3810902127D-01
      0.2002000000D+01  0.2094801169D+00
      0.5456000000D+00  0.5085572839D+00
      0.1517000000D+00  0.4688422617D+00
 P   1 1.00       0.000000000000
      0.1517000000D+00  0.1000000000D+01
 D   1 1.00       0.000000000000
      0.5500000000D+00  0.1000000000D+01
 ****
     21 0
 S   8 1.00       0.000000000000
      0.6665000000D+04  0.6911871665D-03
      0.1000000000D+04  0.5322577364D-02
      0.2280000000D+03  0.2704512777D-01
      0.6471000000D+02  0.1015883442D+00
      0.2106000000D+02  0.2743843617D+00
      0.7495000000D+01  0.4477328995D+00
      0.2797000000D+01  0.2843702133D+00
      0.5215000000D+00  0.1819701823D-01
 S   7 1.00       0.000000000000
      0.6665000000D+04  0.7733547404D-05
      0.2280000000D+03  0.2780721367D-03
      0.6471000000D+02 -0.2578756542D-02
      0.2106000000D+02 -0.8950876838D-02
      0.7495000000D+01 -0.1060588547D+00
      0.2797000000D+01 -0.1315176856D+00
      0.5215000000D+00  0.1099486598D+01
 S   1 1.00       0.000000000000
      0.1596000000D+00  0.1000000000D+01
 P   4 1.00       0.000000000000
      0.9439000000D+01  0.3810902127D-01
      0.2002000000D+01  0.2094801169D+00
      0.5456000000D+00  0.5085572839D+00
      0.1517000000D+00  0.4688422617D+00
 P   1 1.00       0.000000000000
      0.1517000000D+00  0.1000000000D+01
 D   1 1.00       0.000000000000
      0.5500000000D+00  0.1000000000D+01
 ****
     22 0
 S   8 1.00       0.000000000000
      0.1471000000D+05  0.7203177699D-03
      0.2207000000D+04  0.5547593068D-02
      0.5028000000D+03  0.2824014585D-01
      0.1426000000D+03  0.1063337210D+00
      0.4647000000D+02  0.2865095917D+00
      0.1670000000D+02  0.4479372539D+00
      0.6356000000D+01  0.2642983559D+00
      0.1316000000D+01  0.1764040724D-01
 S   7 1.00       0.000000000000
      0.1471000000D+05  0.9329717475D-05
      0.5028000000D+03  0.3153039638D-03
      0.1426000000D+03 -0.3125687006D-02
      0.4647000000D+02 -0.1184270573D-01
      0.1670000000D+02 -0.1257376908D+00
      0.6356000000D+01 -0.9650219096D-01
      0.1316000000D+01  0.1094036315D+01
 S   1 1.00       0.000000000000
      0.3897000000D+00  0.1000000000D+01
 P   4 1.00       0.000000000000
      0.2267000000D+02  0.4487800121D-01
      0.4977000000D+01  0.2357180064D+00
      0.1347000000D+01  0.5085210137D+00
      0.3471000000D+00  0.4581200124D+00
 P   1 1.00       0.000000000000
      0.3471000000D+00  0.1000000000D+01
 D   1 1.00       0.000000000000
      0.1640000000D+01  0.1000000000D+01
 ****
     23 0
 S   8 1.00       0.000000000000
      0.1471000000D+05  0.7203177699D-03
      0.2207000000D+04  0.5547593068D-02
      0.5028000000D+03  0.2824014585D-01
      0.1426000000D+03  0.1063337210D+00
      0.4647000000D+02  0.2865095917D+00
      0.1670000000D+02  0.4479372539D+00
      0.6356000000D+01  0.2642983559D+00
      0.1316000000D+01  0.1764040724D-01
 S   7 1.00       0.000000000000
      0.1471000000D+05  0.9329717475D-05
      0.5028000000D+03  0.3153039638D-03
      0.1426000000D+03 -0.3125687006D-02
      0.4647000000D+02 -0.1184270573D-01
      0.1670000000D+02 -0.1257376908D+00
      0.6356000000D+01 -0.9650219096D-01
      0.1316000000D+01  0.1094036315D+01
 S   1 1.00       0.000000000000
      0.3897000000D+00  0.1000000000D+01
 P   4 1.00       0.000000000000
      0.2267000000D+02  0.4487800121D-01
      0.4977000000D+01  0.2357180064D+00
      0.1347000000D+01  0.5085210137D+00
      0.3471000000D+00  0.4581200124D+00
 P   1 1.00       0.000000000000
      0.3471000000D+00  0.1000000000D+01
 D   1 1.00       0.000000000000
      0.1640000000D+01  0.1000000000D+01
 ****
     24 0
 S   4 1.00       0.000000000000
      0.1301000000D+02  0.1968498999D-01
      0.1962000000D+01  0.1379769298D+00
      0.4446000000D+00  0.4781477569D+00
      0.1220000000D+00  0.5012397451D+00
 S   1 1.00       0.000000000000
      0.1220000000D+00  0.1000000000D+01
 P   1 1.00       0.000000000000
      0.7270000000D+00  0.1000000000D+01
 ****
     25 0
 S   8 1.00       0.000000000000
      0.6665000000D+04  0.6911871665D-03
      0.1000000000D+04  0.5322577364D-02
      0.2280000000D+03  0.2704512777D-01
      0.6471000000D+02  0.1015883442D+00
      0.2106000000D+02  0.2743843617D+00
      0.7495000000D+01  0.4477328995D+00
      0.2797000000D+01  0.2843702133D+00
      0.5215000000D+00  0.1819701823D-01
 S   7 1.00       0.000000000000
      0.6665000000D+04  0.7733547404D-05
      0.2280000000D+03  0.2780721367D-03
      0.6471000000D+02 -0.2578756542D-02
      0.2106000000D+02 -0.8950876838D-02
      0.7495000000D+01 -0.1060588547D+00
      0.2797000000D+01 -0.1315176856D+00
      0.5215000000D+00  0.1099486598D+01
 S   1 1.00       0.000000000000
      0.1596000000D+00  0.1000000000D+01
 P   4 1.00       0.000000000000
      0.9439000000D+01  0.3810902127D-01
      0.2002000000D+01  0.2094801169D+00
      0.5456000000D+00  0.5085572839D+00
      0.1517000000D+00  0.4688422617D+00
 P   1 1.00       0.000000000000
      0.1517000000D+00  0.1000000000D+01
 D   1 1.00       0.000000000000
      0.5500000000D+00  0.1000000000D+01
 ****
     26 0
 S   4 1.00       0.000000000000
      0.1301000000D+02  0.1968498999D-01
      0.1962000000D+01  0.1379769298D+00
      0.4446000000D+00  0.4781477569D+00
      0.1220000000D+00  0.5012397451D+00
 S   1 1.00       0.000000000000
      0.1220000000D+00  0.1000000000D+01
 P   1 1.00       0.000000000000
      0.7270000000D+00  0.1000000000D+01
 ****
     27 0
 S   4 1.00       0.000000000000
      0.1301000000D+02  0.1968498999D-01
      0.1962000000D+01  0.1379769298D+00
      0.4446000000D+00  0.4781477569D+00
      0.1220000000D+00  0.5012397451D+00
 S   1 1.00       0.000000000000
      0.1220000000D+00  0.1000000000D+01
 P   1 1.00       0.000000000000
      0.7270000000D+00  0.1000000000D+01
 ****
     28 0
 S   8 1.00       0.000000000000
      0.6665000000D+04  0.6911871665D-03
      0.1000000000D+04  0.5322577364D-02
      0.2280000000D+03  0.2704512777D-01
      0.6471000000D+02  0.1015883442D+00
      0.2106000000D+02  0.2743843617D+00
      0.7495000000D+01  0.4477328995D+00
      0.2797000000D+01  0.2843702133D+00
      0.5215000000D+00  0.1819701823D-01
 S   7 1.00       0.000000000000
      0.6665000000D+04  0.7733547404D-05
      0.2280000000D+03  0.2780721367D-03
      0.6471000000D+02 -0.2578756542D-02
      0.2106000000D+02 -0.8950876838D-02
      0.7495000000D+01 -0.1060588547D+00
      0.2797000000D+01 -0.1315176856D+00
      0.5215000000D+00  0.1099486598D+01
 S   1 1.00       0.000000000000
      0.1596000000D+00  0.1000000000D+01
 P   4 1.00       0.000000000000
      0.9439000000D+01  0.3810902127D-01
      0.2002000000D+01  0.2094801169D+00
      0.5456000000D+00  0.5085572839D+00
      0.1517000000D+00  0.4688422617D+00
 P   1 1.00       0.000000000000
      0.1517000000D+00  0.1000000000D+01
 D   1 1.00       0.000000000000
      0.5500000000D+00  0.1000000000D+01
 ****
     29 0
 S   4 1.00       0.000000000000
      0.1301000000D+02  0.1968498999D-01
      0.1962000000D+01  0.1379769298D+00
      0.4446000000D+00  0.4781477569D+00
      0.1220000000D+00  0.5012397451D+00
 S   1 1.00       0.000000000000
      0.1220000000D+00  0.1000000000D+01
 P   1 1.00       0.000000000000
      0.7270000000D+00  0.1000000000D+01
 ****
     30 0
 S   4 1.00       0.000000000000
      0.1301000000D+02  0.1968498999D-01
      0.1962000000D+01  0.1379769298D+00
      0.4446000000D+00  0.4781477569D+00
      0.1220000000D+00  0.5012397451D+00
 S   1 1.00       0.000000000000
      0.1220000000D+00  0.1000000000D+01
 P   1 1.00       0.000000000000
      0.7270000000D+00  0.1000000000D+01
 ****
     31 0
 S   8 1.00       0.000000000000
      0.6665000000D+04  0.6911871665D-03
      0.1000000000D+04  0.5322577364D-02
      0.2280000000D+03  0.2704512777D-01
      0.6471000000D+02  0.1015883442D+00
      0.2106000000D+02  0.2743843617D+00
      0.7495000000D+01  0.4477328995D+00
      0.2797000000D+01  0.2843702133D+00
      0.5215000000D+00  0.1819701823D-01
 S   7 1.00       0.000000000000
      0.6665000000D+04  0.7733547404D-05
      0.2280000000D+03  0.2780721367D-03
      0.6471000000D+02 -0.2578756542D-02
      0.2106000000D+02 -0.8950876838D-02
      0.7495000000D+01 -0.1060588547D+00
      0.2797000000D+01 -0.1315176856D+00
      0.5215000000D+00  0.1099486598D+01
 S   1 1.00       0.000000000000
      0.1596000000D+00  0.1000000000D+01
 P   4 1.00       0.000000000000
      0.9439000000D+01  0.3810902127D-01
      0.2002000000D+01  0.2094801169D+00
      0.5456000000D+00  0.5085572839D+00
      0.1517000000D+00  0.4688422617D+00
 P   1 1.00       0.000000000000
      0.1517000000D+00  0.1000000000D+01
 D   1 1.00       0.000000000000
      0.5500000000D+00  0.1000000000D+01
 ****
     32 0
 S   8 1.00       0.000000000000
      0.6665000000D+04  0.6911871665D-03
      0.1000000000D+04  0.5322577364D-02
      0.2280000000D+03  0.2704512777D-01
      0.6471000000D+02  0.1015883442D+00
      0.2106000000D+02  0.2743843617D+00
      0.7495000000D+01  0.4477328995D+00
      0.2797000000D+01  0.2843702133D+00
      0.5215000000D+00  0.1819701823D-01
 S   7 1.00       0.000000000000
      0.6665000000D+04  0.7733547404D-05
      0.2280000000D+03  0.2780721367D-03
      0.6471000000D+02 -0.2578756542D-02
      0.2106000000D+02 -0.8950876838D-02
      0.7495000000D+01 -0.1060588547D+00
      0.2797000000D+01 -0.1315176856D+00
      0.5215000000D+00  0.1099486598D+01
 S   1 1.00       0.000000000000
      0.1596000000D+00  0.1000000000D+01
 P   4 1.00       0.000000000000
      0.9439000000D+01  0.3810902127D-01
      0.2002000000D+01  0.2094801169D+00
      0.5456000000D+00  0.5085572839D+00
      0.1517000000D+00  0.4688422617D+00
 P   1 1.00       0.000000000000
      0.1517000000D+00  0.1000000000D+01
 D   1 1.00       0.000000000000
      0.5500000000D+00  0.1000000000D+01
 ****
     33 0
 S   8 1.00       0.000000000000
      0.6665000000D+04  0.6911871665D-03
      0.1000000000D+04  0.5322577364D-02
      0.2280000000D+03  0.2704512777D-01
      0.6471000000D+02  0.1015883442D+00
      0.2106000000D+02  0.2743843617D+00
      0.7495000000D+01  0.4477328995D+00
      0.2797000000D+01  0.2843702133D+00
      0.5215000000D+00  0.1819701823D-01
 S   7 1.00       0.000000000000
      0.6665000000D+04  0.7733547404D-05
      0.2280000000D+03  0.2780721367D-03
      0.6471000000D+02 -0.2578756542D-02
      0.2106000000D+02 -0.8950876838D-02
      0.7495000000D+01 -0.1060588547D+00
      0.2797000000D+01 -0.1315176856D+00
      0.5215000000D+00  0.1099486598D+01
 S   1 1.00       0.000000000000
      0.1596000000D+00  0.1000000000D+01
 P   4 1.00       0.000000000000
      0.9439000000D+01  0.3810902127D-01
      0.2002000000D+01  0.2094801169D+00
      0.5456000000D+00  0.5085572839D+00
      0.1517000000D+00  0.4688422617D+00
 P   1 1.00       0.000000000000
      0.1517000000D+00  0.1000000000D+01
 D   1 1.00       0.000000000000
      0.5500000000D+00  0.1000000000D+01
 ****
     34 0
 S   8 1.00       0.000000000000
      0.6665000000D+04  0.6911871665D-03
      0.1000000000D+04  0.5322577364D-02
      0.2280000000D+03  0.2704512777D-01
      0.6471000000D+02  0.1015883442D+00
      0.2106000000D+02  0.2743843617D+00
      0.7495000000D+01  0.4477328995D+00
      0.2797000000D+01  0.2843702133D+00
      0.5215000000D+00  0.1819701823D-01
 S   7 1.00       0.000000000000
      0.6665000000D+04  0.7733547404D-05
      0.2280000000D+03  0.2780721367D-03
      0.6471000000D+02 -0.2578756542D-02
      0.2106000000D+02 -0.8950876838D-02
      0.7495000000D+01 -0.1060588547D+00
      0.2797000000D+01 -0.1315176856D+00
      0.5215000000D+00  0.1099486598D+01
 S   1 1.00       0.000000000000
      0.1596000000D+00  0.1000000000D+01
 P   4 1.00       0.000000000000
      0.9439000000D+01  0.3810902127D-01
      0.2002000000D+01  0.2094801169D+00
      0.5456000000D+00  0.5085572839D+00
      0.1517000000D+00  0.4688422617D+00
 P   1 1.00       0.000000000000
      0.1517000000D+00  0.1000000000D+01
 D   1 1.00       0.000000000000
      0.5500000000D+00  0.1000000000D+01
 ****
     35 0
 S   8 1.00       0.000000000000
      0.6665000000D+04  0.6911871665D-03
      0.1000000000D+04  0.5322577364D-02
      0.2280000000D+03  0.2704512777D-01
      0.6471000000D+02  0.1015883442D+00
      0.2106000000D+02  0.2743843617D+00
      0.7495000000D+01  0.4477328995D+00
      0.2797000000D+01  0.2843702133D+00
      0.5215000000D+00  0.1819701823D-01
 S   7 1.00       0.000000000000
      0.6665000000D+04  0.7733547404D-05
      0.2280000000D+03  0.2780721367D-03
      0.6471000000D+02 -0.2578756542D-02
      0.2106000000D+02 -0.8950876838D-02
      0.7495000000D+01 -0.1060588547D+00
      0.2797000000D+01 -0.1315176856D+00
      0.5215000000D+00  0.1099486598D+01
 S   1 1.00       0.000000000000
      0.1596000000D+00  0.1000000000D+01
 P   4 1.00       0.000000000000
      0.9439000000D+01  0.3810902127D-01
      0.2002000000D+01  0.2094801169D+00
      0.5456000000D+00  0.5085572839D+00
      0.1517000000D+00  0.4688422617D+00
 P   1 1.00       0.000000000000
      0.1517000000D+00  0.1000000000D+01
 D   1 1.00       0.000000000000
      0.5500000000D+00  0.1000000000D+01
 ****
     36 0
 S   8 1.00       0.000000000000
      0.6665000000D+04  0.6911871665D-03
      0.1000000000D+04  0.5322577364D-02
      0.2280000000D+03  0.2704512777D-01
      0.6471000000D+02  0.1015883442D+00
      0.2106000000D+02  0.2743843617D+00
      0.7495000000D+01  0.4477328995D+00
      0.2797000000D+01  0.2843702133D+00
      0.5215000000D+00  0.1819701823D-01
 S   7 1.00       0.000000000000
      0.6665000000D+04  0.7733547404D-05
      0.2280000000D+03  0.2780721367D-03
      0.6471000000D+02 -0.2578756542D-02
      0.2106000000D+02 -0.8950876838D-02
      0.7495000000D+01 -0.1060588547D+00
      0.2797000000D+01 -0.1315176856D+00
      0.5215000000D+00  0.1099486598D+01
 S   1 1.00       0.000000000000
      0.1596000000D+00  0.1000000000D+01
 P   4 1.00       0.000000000000
      0.9439000000D+01  0.3810902127D-01
      0.2002000000D+01  0.2094801169D+00
      0.5456000000D+00  0.5085572839D+00
      0.1517000000D+00  0.4688422617D+00
 P   1 1.00       0.000000000000
      0.1517000000D+00  0.1000000000D+01
 D   1 1.00       0.000000000000
      0.5500000000D+00  0.1000000000D+01
 ****
     37 0
 S   8 1.00       0.000000000000
      0.6665000000D+04  0.6911871665D-03
      0.1000000000D+04  0.5322577364D-02
      0.2280000000D+03  0.2704512777D-01
      0.6471000000D+02  0.1015883442D+00
      0.2106000000D+02  0.2743843617D+00
      0.7495000000D+01  0.4477328995D+00
      0.2797000000D+01  0.2843702133D+00
      0.5215000000D+00  0.1819701823D-01
 S   7 1.00       0.000000000000
      0.6665000000D+04  0.7733547404D-05
      0.2280000000D+03  0.2780721367D-03
      0.6471000000D+02 -0.2578756542D-02
      0.2106000000D+02 -0.8950876838D-02
      0.7495000000D+01 -0.1060588547D+00
      0.2797000000D+01 -0.1315176856D+00
      0.5215000000D+00  0.1099486598D+01
 S   1 1.00       0.000000000000
      0.1596000000D+00  0.1000000000D+01
 P   4 1.00       0.000000000000
      0.9439000000D+01  0.3810902127D-01
      0.2002000000D+01  0.2094801169D+00
      0.5456000000D+00  0.5085572839D+00
      0.1517000000D+00  0.4688422617D+00
 P   1 1.00       0.000000000000
      0.1517000000D+00  0.1000000000D+01
 D   1 1.00       0.000000000000
      0.5500000000D+00  0.1000000000D+01
 ****
     38 0
 S   8 1.00       0.000000000000
      0.9046000000D+04  0.6992344253D-03
      0.1357000000D+04  0.5382957142D-02
      0.3093000000D+03  0.2737601759D-01
      0.8773000000D+02  0.1030842986D+00
      0.2856000000D+02  0.2783858163D+00
      0.1021000000D+02  0.4477523650D+00
      0.3838000000D+01  0.2776317906D+00
      0.7466000000D+00  0.1815626767D-01
 S   7 1.00       0.000000000000
      0.9046000000D+04  0.7774467966D-05
      0.3093000000D+03  0.3007420716D-03
      0.8773000000D+02 -0.2800165487D-02
      0.2856000000D+02 -0.9897085049D-02
      0.1021000000D+02 -0.1143311135D+00
      0.3838000000D+01 -0.1181623826D+00
      0.7466000000D+00  0.1097868854D+01
 S   1 1.00       0.000000000000
      0.2248000000D+00  0.1000000000D+01
 P   4 1.00       0.000000000000
      0.1355000000D+02  0.3991901233D-01
      0.2917000000D+01  0.2171690671D+00
      0.7973000000D+00  0.5103191576D+00
      0.2185000000D+00  0.4622141427D+00
 P   1 1.00       0.000000000000
      0.2185000000D+00  0.1000000000D+01
 D   1 1.00       0.000000000000
      0.8170000000D+00  0.1000000000D+01
 ****
     39 0
 S   4 1.00       0.000000000000
      0.1301000000D+02  0.1968498999D-01
      0.1962000000D+01  0.1379769298D+00
      0.4446000000D+00  0.4781477569D+00
      0.1220000000D+00  0.5012397451D+00
 S   1 1.00       0.000000000000
      0.1220000000D+00  0.1000000000D+01
 P   1 1.00       0.000000000000
      0.7270000000D+00  0.1000000000D+01
 ****
     40 0
 S   8 1.00       0.000000000000
      0.1471000000D+05  0.7203177699D-03
      0.2207000000D+04  0.5547593068D-02
      0.5028000000D+03  0.2824014585D-01
      0.1426000000D+03  0.1063337210D+00
      0.4647000000D+02  0.2865095917D+00
      0.1670000000D+02  0.4479372539D+00
      0.6356000000D+01  0.2642983559D+00
      0.1316000000D+01  0.1764040724D-01
 S   7 1.00       0.000000000000
      0.1471000000D+05  0.9329717475D-05
      0.5028000000D+03  0.3153039638D-03
      0.1426000000D+03 -0.3125687006D-02
      0.4647000000D+02 -0.1184270573D-01
      0.1670000000D+02 -0.1257376908D+00
      0.6356000000D+01 -0.9650219096D-01
      0.1316000000D+01  0.1094036315D+01
 S   1 1.00       0.000000000000
      0.3897000000D+00  0.1000000000D+01
 P   4 1.00       0.000000000000
      0.2267000000D+02  0.4487800121D-01
      0.4977000000D+01  0.2357180064D+00
      0.1347000000D+01  0.5085210137D+00
      0.3471000000D+00  0.4581200124D+00
 P   1 1.00       0.000000000000
      0.3471000000D+00  0.1000000000D+01
 D   1 1.00       0.000000000000
      0.1640000000D+01  0.1000000000D+01
 ****
     41 0
 S   8 1.00       0.000000000000
      0.1471000000D+05  0.7203177699D-03
      0.2207000000D+04  0.5547593068D-02
      0.5028000000D+03  0.2824014585D-01
      0.1426000000D+03  0.1063337210D+00
      0.4647000000D+02  0.2865095917D+00
      0.1670000000D+02  0.4479372539D+00
      0.6356000000D+01  0.2642983559D+00
      0.1316000000D+01  0.1764040724D-01
 S   7 1.00       0.000000000000
      0.1471000000D+05  0.9329717475D-05
      0.5028000000D+03  0.3153039638D-03
      0.1426000000D+03 -0.3125687006D-02
      0.4647000000D+02 -0.1184270573D-01
      0.1670000000D+02 -0.1257376908D+00
      0.6356000000D+01 -0.9650219096D-01
      0.1316000000D+01  0.1094036315D+01
 S   1 1.00       0.000000000000
      0.3897000000D+00  0.1000000000D+01
 P   4 1.00       0.000000000000
      0.2267000000D+02  0.4487800121D-01
      0.4977000000D+01  0.2357180064D+00
      0.1347000000D+01  0.5085210137D+00
      0.3471000000D+00  0.4581200124D+00
 P   1 1.00       0.000000000000
      0.3471000000D+00  0.1000000000D+01
 D   1 1.00       0.000000000000
      0.1640000000D+01  0.1000000000D+01
 ****
     42 0
 S   8 1.00       0.000000000000
      0.1471000000D+05  0.7203177699D-03
      0.2207000000D+04  0.5547593068D-02
      0.5028000000D+03  0.2824014585D-01
      0.1426000000D+03  0.1063337210D+00
      0.4647000000D+02  0.2865095917D+00
      0.1670000000D+02  0.4479372539D+00
      0.6356000000D+01  0.2642983559D+00
      0.1316000000D+01  0.1764040724D-01
 S   7 1.00       0.000000000000
      0.1471000000D+05  0.9329717475D-05
      0.5028000000D+03  0.3153039638D-03
      0.1426000000D+03 -0.3125687006D-02
      0.4647000000D+02 -0.1184270573D-01
      0.1670000000D+02 -0.1257376908D+00
      0.6356000000D+01 -0.9650219096D-01
      0.1316000000D+01  0.1094036315D+01
 S   1 1.00       0.000000000000
      0.3897000000D+00  0.1000000000D+01
 P   4 1.00       0.000000000000
      0.2267000000D+02  0.4487800121D-01
      0.4977000000D+01  0.2357180064D+00
      0.1347000000D+01  0.5085210137D+00
      0.3471000000D+00  0.4581200124D+00
 P   1 1.00       0.000000000000
      0.3471000000D+00  0.1000000000D+01
 D   1 1.00       0.000000000000
      0.1640000000D+01  0.1000000000D+01
 ****
     43 0
 S   8 1.00       0.000000000000
      0.1471000000D+05  0.7203177699D-03
      0.2207000000D+04  0.5547593068D-02
      0.5028000000D+03  0.2824014585D-01
      0.1426000000D+03  0.1063337210D+00
      0.4647000000D+02  0.2865095917D+00
      0.1670000000D+02  0.4479372539D+00
      0.6356000000D+01  0.2642983559D+00
      0.1316000000D+01  0.1764040724D-01
 S   7 1.00       0.000000000000
      0.1471000000D+05  0.9329717475D-05
      0.5028000000D+03  0.3153039638D-03
      0.1426000000D+03 -0.3125687006D-02
      0.4647000000D+02 -0.1184270573D-01
      0.1670000000D+02 -0.1257376908D+00
      0.6356000000D+01 -0.9650219096D-01
      0.1316000000D+01  0.1094036315D+01
 S   1 1.00       0.000000000000
      0.3897000000D+00  0.1000000000D+01
 P   4 1.00       0.000000000000
      0.2267000000D+02  0.4487800121D-01
      0.4977000000D+01  0.2357180064D+00
      0.1347000000D+01  0.5085210137D+00
      0.3471000000D+00  0.4581200124D+00
 P   1 1.00       0.000000000000
      0.3471000000D+00  0.1000000000D+01
 D   1 1.00       0.000000000000
      0.1640000000D+01  0.1000000000D+01
 ****
     44 0
 S   8 1.00       0.000000000000
      0.1471000000D+05  0.7203177699D-03
      0.2207000000D+04  0.5547593068D-02
      0.5028000000D+03  0.2824014585D-01
      0.1426000000D+03  0.1063337210D+00
      0.4647000000D+02  0.2865095917D+00
      0.1670000000D+02  0.4479372539D+00
      0.6356000000D+01  0.2642983559D+00
      0.1316000000D+01  0.1764040724D-01
 S   7 1.00       0.000000000000
      0.1471000000D+05  0.9329717475D-05
      0.5028000000D+03  0.3153039638D-03
      0.1426000000D+03 -0.3125687006D-02
      0.4647000000D+02 -0.1184270573D-01
      0.1670000000D+02 -0.1257376908D+00
      0.6356000000D+01 -0.9650219096D-01
      0.1316000000D+01  0.1094036315D+01
 S   1 1.00       0.000000000000
      0.3897000000D+00  0.1000000000D+01
 P   4 1.00       0.000000000000
      0.2267000000D+02  0.4487800121D-01
      0.4977000000D+01  0.2357180064D+00
      0.1347000000D+01  0.5085210137D+00
      0.3471000000D+00  0.4581200124D+00
 P   1 1.00       0.000000000000
      0.3471000000D+00  0.1000000000D+01
 D   1 1.00       0.000000000000
      0.1640000000D+01  0.1000000000D+01
 ****
     45 0
 S   8 1.00       0.000000000000
      0.1471000000D+05  0.7203177699D-03
      0.2207000000D+04  0.5547593068D-02
      0.5028000000D+03  0.2824014585D-01
      0.1426000000D+03  0.1063337210D+00
      0.4647000000D+02  0.2865095917D+00
      0.1670000000D+02  0.4479372539D+00
      0.6356000000D+01  0.2642983559D+00
      0.1316000000D+01  0.1764040724D-01
 S   7 1.00       0.000000000000
      0.1471000000D+05  0.9329717475D-05
      0.5028000000D+03  0.3153039638D-03
      0.1426000000D+03 -0.3125687006D-02
      0.4647000000D+02 -0.1184270573D-01
      0.1670000000D+02 -0.1257376908D+00
      0.6356000000D+01 -0.9650219096D-01
      0.1316000000D+01  0.1094036315D+01
 S   1 1.00       0.000000000000
      0.3897000000D+00  0.1000000000D+01
 P   4 1.00       0.000000000000
      0.2267000000D+02  0.4487800121D-01
      0.4977000000D+01  0.2357180064D+00
      0.1347000000D+01  0.5085210137D+00
      0.3471000000D+00  0.4581200124D+00
 P   1 1.00       0.000000000000
      0.3471000000D+00  0.1000000000D+01
 D   1 1.00       0.000000000000
      0.1640000000D+01  0.1000000000D+01
 ****
     46 0
 S   4 1.00       0.000000000000
      0.1301000000D+02  0.1968498999D-01
      0.1962000000D+01  0.1379769298D+00
      0.4446000000D+00  0.4781477569D+00
      0.1220000000D+00  0.5012397451D+00
 S   1 1.00       0.000000000000
      0.1220000000D+00  0.1000000000D+01
 P   1 1.00       0.000000000000
      0.7270000000D+00  0.1000000000D+01
 ****
     47 0
 S   4 1.00       0.000000000000
      0.1301000000D+02  0.1968498999D-01
[...]
                 1 
      1   0.615288D+05
      2  -0.189275D+03
      3   0.371096D+04
      4  -0.351389D+03
      5  -0.601140D+01
      6  -0.541212D+02
      7  -0.191446D+03
      8   0.320671D+04
      9  -0.295236D+02
     10  -0.581613D+01
     11  -0.547585D+02
     12  -0.310082D+00
     13  -0.369831D+03
     14  -0.536518D+01
     15  -0.601339D+02
     16  -0.413775D+02
     17  -0.336603D+00
     18  -0.576829D+01

 ----------------------------------------------------------------------

 Electric dipole moment (input orientation):
 (Debye = 10**-18 statcoulomb cm , SI units = C m)
                  (au)            (Debye)         (10**-30 SI)
   Tot        0.145266D+01      0.369230D+01      0.123162D+02
   x          0.144309D+01      0.366798D+01      0.122350D+02
   y         -0.109169D-01     -0.277479D-01     -0.925570D-01
   z          0.166126D+00      0.422250D+00      0.140847D+01

 Dipole polarizability, Alpha (input orientation).
 (esu units = cm**3 , SI units = C**2 m**2 J**-1)
 Alpha(0;0):
               (au)            (10**-24 esu)      (10**-40 SI)
   iso        0.619797D+03      0.918444D+02      0.102191D+03
   aniso      0.627508D+03      0.929870D+02      0.103462D+03
   xx         0.934718D+03      0.138511D+03      0.154114D+03
   yx        -0.465087D+00     -0.689188D-01     -0.766825D-01
   yy         0.700780D+03      0.103845D+03      0.115543D+03
   zx         0.284889D+01      0.422163D+00      0.469719D+00
   zy         0.311387D+01      0.461429D+00      0.513409D+00
   zz         0.223892D+03      0.331774D+02      0.369148D+02
 Alpha(-w;w) w= 1907.0nm:
                  (au)         (10**-24 esu)      (10**-40 SI)
   iso        0.520526D+03      0.771340D+02      0.858231D+02
   aniso      0.559908D+03      0.829698D+02      0.923163D+02
   xx         0.809523D+03      0.119959D+03      0.133472D+03
   yx        -0.475156D+00     -0.704109D-01     -0.783427D-01
   yy         0.580599D+03      0.860359D+02      0.957278D+02
   zx         0.197936D+01      0.293311D+00      0.326353D+00
   zy         0.236482D+01      0.350430D+00      0.389906D+00
   zz         0.171456D+03      0.254071D+02      0.282692D+02

 First dipole hyperpolarizability, Beta (input orientation).
 ||, _|_  parallel and perpendicular components, (z) with respect to z axis,
 vector components x,y,z.  Values do not include the 1/n! factor of 1/2.
 (esu units = statvolt**-1 cm**4 , SI units = C**3 m**3 J**-2)
 Beta(0;0,0):
               (au)            (10**-30 esu)      (10**-50 SI)
   || (z)    -0.212246D+03     -0.183364D+01     -0.680536D+00
   _|_(z)    -0.707485D+02     -0.611212D+00     -0.226845D+00
   x          0.155653D+06      0.134472D+04      0.499079D+03
   y         -0.504619D+03     -0.435952D+01     -0.161799D+01
   z         -0.106123D+04     -0.916818D+01     -0.340268D+01
   ||         0.311314D+05      0.268951D+03      0.998186D+02
   xxx        0.501764D+05      0.433485D+03      0.160884D+03
   xxy       -0.158969D+03     -0.137337D+01     -0.509712D+00
   yxy        0.179500D+04      0.155074D+02      0.575543D+01
   yyy       -0.922116D+01     -0.796637D-01     -0.295664D-01
   xxz       -0.257596D+03     -0.222543D+01     -0.825946D+00
   yxz       -0.186443D+02     -0.161072D+00     -0.597804D-01
   yyz       -0.715360D+02     -0.618015D+00     -0.229370D+00
   zxz       -0.871218D+02     -0.752664D+00     -0.279344D+00
   zyz       -0.164706D-01     -0.142293D-03     -0.528106D-04
   zzz       -0.246105D+02     -0.212616D+00     -0.789102D-01
 Beta(-w;w,0) w= 1907.0nm:
                  (au)         (10**-30 esu)      (10**-50 SI)
   || (z)    -0.188677D+03     -0.163002D+01     -0.604966D+00
   _|_(z)    -0.502728D+02     -0.434318D+00     -0.161193D+00
   x          0.138825D+06      0.119934D+04      0.445123D+03
   y         -0.454374D+03     -0.392543D+01     -0.145689D+01
   z         -0.943384D+03     -0.815010D+01     -0.302483D+01
   ||         0.277658D+05      0.239875D+03      0.890272D+02
   xxx        0.444008D+05      0.383589D+03      0.142365D+03
   yxx       -0.138725D+03     -0.119848D+01     -0.444802D+00
   yyx        0.171179D+04      0.147885D+02      0.548861D+01
   zxx       -0.259668D+03     -0.224333D+01     -0.832588D+00
   zyx       -0.123648D+02     -0.106822D+00     -0.396459D-01
   zzx       -0.266485D+02     -0.230222D+00     -0.854447D-01
   xxy       -0.137510D+03     -0.118798D+01     -0.440907D+00
   yxy        0.202328D+04      0.174796D+02      0.648737D+01
   yyy       -0.128627D+02     -0.111124D+00     -0.412425D-01
   zxy       -0.120418D+02     -0.104031D+00     -0.386102D-01
   zyy       -0.575573D+02     -0.497251D+00     -0.184550D+00
   zzy       -0.304472D+00     -0.263040D-02     -0.976248D-03
   xxz       -0.229725D+03     -0.198465D+01     -0.736583D+00
   yxz       -0.116032D+02     -0.100243D+00     -0.372042D-01
   yyz       -0.496412D+02     -0.428862D+00     -0.159168D+00
   zxz       -0.545675D+02     -0.471421D+00     -0.174963D+00
   zyz       -0.260488D+00     -0.225041D-02     -0.835218D-03
   zzz       -0.985590D+01     -0.851473D-01     -0.316016D-01
 Beta(-2w;w,w) w= 1907.0nm:
                  (au)         (10**-30 esu)      (10**-50 SI)
   || (z)    -0.251913D+03     -0.217633D+01     -0.807724D+00
   _|_(z)    -0.919101D+02     -0.794032D+00     -0.294697D+00
   x          0.194574D+06      0.168097D+04      0.623874D+03
   y         -0.659550D+03     -0.569800D+01     -0.211476D+01
   z         -0.125956D+04     -0.108817D+02     -0.403862D+01
   ||         0.389158D+05      0.336202D+03      0.124778D+03
   xxx        0.615288D+05      0.531561D+03      0.197283D+03
   yxx       -0.191446D+03     -0.165394D+01     -0.613844D+00
   zxx       -0.369831D+03     -0.319505D+01     -0.118581D+01
   xyx       -0.189275D+03     -0.163519D+01     -0.606884D+00
   yyx        0.320671D+04      0.277035D+02      0.102819D+02
   zyx       -0.536518D+01     -0.463510D-01     -0.172027D-01
   xyy        0.371096D+04      0.320598D+02      0.118987D+02
   yyy       -0.295236D+02     -0.255061D+00     -0.946632D-01
   zyy       -0.601339D+02     -0.519510D+00     -0.192811D+00
   xzx       -0.351389D+03     -0.303572D+01     -0.112668D+01
   yzx       -0.581613D+01     -0.502469D-01     -0.186486D-01
   zzx       -0.413775D+02     -0.357470D+00     -0.132671D+00
   xzy       -0.601140D+01     -0.519338D-01     -0.192747D-01
   yzy       -0.547585D+02     -0.473071D+00     -0.175576D+00
   zzy       -0.336603D+00     -0.290799D-02     -0.107927D-02
   xzz       -0.541212D+02     -0.467565D+00     -0.173532D+00
   yzz       -0.310082D+00     -0.267886D-02     -0.994233D-03
   zzz       -0.576829D+01     -0.498335D-01     -0.184952D-01

 ----------------------------------------------------------------------

 Dipole orientation:
    78          0.26215850          0.00760181          1.88742081
     6         -0.08653379         -0.00162513         -1.96985350
     7          0.30759301         -3.82025629          2.56195020
     7          0.33858018          3.83854257          2.54491577
     6          0.21785217          5.62717054          0.75256686
     6          0.16810214         -5.61491953          0.77703029
     6          0.53633731          4.51425854          5.06112198
     6          0.50873026         -4.48732940          5.08007156
     6          0.64684305         -2.33114330          6.81371371
     6          0.66005793          2.36454771          6.80380082
     6          0.87033595          2.30391789          9.44667362
     6          0.60102940          7.07852089          5.72742772
     6          0.47367021          8.92642037          3.86543392
     6          0.28244748          8.19261289          1.32936684
     6          0.85806124         -2.26038463          9.45623513
     6          0.96932046          0.02427008         10.77598041
     6          0.57073674         -7.04957956          5.75502493
     6          0.42903379         -8.90379072          3.90028833
     1          0.73501943         -7.56065343          7.74040741
     6          0.22093876         -8.17829798          1.36308186
     6          0.55335407          0.01441667          5.56410138
     9          0.96216761         -4.40399377         10.80215745
     9          0.98543547          4.45262617         10.78364472
     1          0.01614883         -4.93806599         -1.16332033
     6          0.00894469        -10.13900450         -0.69062316
     1          0.48580736        -10.89789246          4.42673155
     1          0.05938968          4.94394517         -1.18510765
     6          0.19705340         10.14669944         -0.73990322
     1          0.74951087          7.59586231          7.71239122
     1          0.51629931         10.92224941          4.38616343
     6         -0.37841131         -0.01070792         -4.28853088
     6         -0.74853780         -0.02109627         -6.96685511
     6         -0.99120337          2.24579750         -8.36133497
     6         -0.91341110         -2.29891329         -8.35497193
     6         -1.38146302          2.25044116        -10.95974024
     6         -1.30243627         -2.32409252        -10.95348375
     6         -1.55532765         -0.04239675        -12.34790535
     7         -1.95158367         -0.05270037        -14.92031428
     1          1.13403871          0.02810784         12.82931577
     9         -1.49680892         11.96908206         -0.22053240
     9         -0.42365339          9.13808776         -2.98411301
     9          2.44710550         11.29996006         -1.02602978
     9          0.21925456         -9.12517679         -3.00733066
     9         -2.22719505        -11.34905568         -0.59445433
     9          1.81166908        -11.91648753         -0.46302026
     1         -0.87401031          4.05210579         -7.36550737
     1         -1.55655445          4.06237830        -11.92143931
     1         -1.41379988         -4.14353643        -11.91059915
     1         -0.73357111         -4.09736800         -7.35428089
     6         -2.21069272          2.31238164        -16.28284674
     6         -2.12832835         -2.42904088        -16.27645408
     1         -0.50464000          3.50643873        -16.11888930
     1         -3.83285718          3.44003455        -15.60337578
     1         -2.51419939          1.91650936        -18.29450256
     1         -3.70686463         -3.61253228        -15.58949960
     1         -0.37978334         -3.56034109        -16.11427682
     1         -2.45129037         -2.04952595        -18.28824304

 Electric dipole moment (dipole orientation):
 (Debye = 10**-18 statcoulomb cm , SI units = C m)
                  (au)            (Debye)         (10**-30 SI)
   Tot        0.145266D+01      0.369230D+01      0.123162D+02
   x          0.000000D+00      0.000000D+00      0.000000D+00
   y          0.000000D+00      0.000000D+00      0.000000D+00
   z          0.145266D+01      0.369230D+01      0.123162D+02

 Dipole polarizability, Alpha (dipole orientation).
 (esu units = cm**3 , SI units = C**2 m**2 J**-1)
 Alpha(0;0):
               (au)            (10**-24 esu)      (10**-40 SI)
   iso        0.619797D+03      0.918444D+02      0.102191D+03
   aniso      0.627508D+03      0.929870D+02      0.103462D+03
   xx         0.232528D+03      0.344571D+02      0.383387D+02
   yx         0.576756D+00      0.854664D-01      0.950942D-01
   yy         0.700804D+03      0.103849D+03      0.115547D+03
   zx         0.780146D+02      0.115606D+02      0.128629D+02
   zy         0.106446D+01      0.157736D+00      0.175505D+00
   zz         0.926058D+03      0.137228D+03      0.152686D+03
 Alpha(-w;w) w= 1907.0nm:
                  (au)         (10**-24 esu)      (10**-40 SI)
   iso        0.520526D+03      0.771340D+02      0.858231D+02
   aniso      0.559908D+03      0.829698D+02      0.923163D+02
   xx         0.179344D+03      0.265760D+02      0.295698D+02
   yx         0.815093D+00      0.120784D+00      0.134391D+00
   yy         0.580615D+03      0.860383D+02      0.957305D+02
   zx         0.705891D+02      0.104602D+02      0.116386D+02
   zy         0.986537D+00      0.146190D+00      0.162658D+00
   zz         0.801619D+03      0.118788D+03      0.132169D+03

 First dipole hyperpolarizability, Beta (dipole orientation).
 ||, _|_  parallel and perpendicular components, (z) with respect to z axis,
 vector components x,y,z.  Values do not include the 1/n! factor of 1/2.
 (esu units = statvolt**-1 cm**4 , SI units = C**3 m**3 J**-2)
 Beta(0;0,0):
               (au)            (10**-30 esu)      (10**-50 SI)
   || (z)     0.309019D+05      0.266968D+03      0.990827D+02
   _|_(z)     0.103006D+05      0.889895D+02      0.330276D+02
   x          0.188591D+05      0.162928D+03      0.604691D+02
   y          0.530212D+03      0.458062D+01      0.170005D+01
   z          0.154510D+06      0.133484D+04      0.495414D+03
   ||         0.311314D+05      0.268951D+03      0.998186D+02
   xxx        0.798901D+02      0.690188D+00      0.256157D+00
   xxy        0.100018D+02      0.864081D-01      0.320695D-01
   yxy        0.276744D+03      0.239085D+01      0.887341D+00
   yyy        0.252280D+02      0.217951D+00      0.808902D-01
   xxz        0.624362D+03      0.539400D+01      0.200193D+01
   yxz        0.502861D+02      0.434433D+00      0.161235D+00
   yyz        0.177449D+04      0.153302D+02      0.568967D+01
   zxz        0.592974D+04      0.512283D+02      0.190129D+02
   zyz        0.141507D+03      0.122251D+01      0.453724D+00
   zzz        0.491043D+05      0.424223D+03      0.157446D+03
 Beta(-w;w,0) w= 1907.0nm:
                  (au)         (10**-30 esu)      (10**-50 SI)
   || (z)     0.275612D+05      0.238107D+03      0.883711D+02
   _|_(z)     0.909460D+04      0.785702D+02      0.291606D+02
   x          0.168171D+05      0.145287D+03      0.539218D+02
   y          0.468605D+03      0.404839D+01      0.150252D+01
   z          0.137806D+06      0.119054D+04      0.441855D+03
   ||         0.277658D+05      0.239875D+03      0.890272D+02
   xxx        0.706161D+02      0.610068D+00      0.226421D+00
   yxx        0.810304D+01      0.700040D-01      0.259813D-01
   yyx        0.245390D+03      0.211998D+01      0.786810D+00
   zxx        0.578681D+03      0.499935D+01      0.185546D+01
   zyx        0.426582D+02      0.368533D+00      0.136778D+00
   zzx        0.524301D+04      0.452955D+02      0.168110D+02
   xxy        0.861422D+01      0.744202D-01      0.276203D-01
   yxy        0.288884D+03      0.249573D+01      0.926267D+00
   yyy        0.244656D+02      0.211363D+00      0.784454D-01
   zxy        0.431109D+02      0.372444D+00      0.138229D+00
   zyy        0.200299D+04      0.173043D+02      0.642232D+01
   zzy        0.122826D+03      0.106112D+01      0.393824D+00
   xxz        0.609830D+03      0.526846D+01      0.195534D+01
   yxz        0.410165D+02      0.354350D+00      0.131514D+00
   yyz        0.169446D+04      0.146388D+02      0.543305D+01
   zxz        0.526956D+04      0.455249D+02      0.168961D+02
   zyz        0.123781D+03      0.106937D+01      0.396888D+00
   zzz        0.434461D+05      0.375340D+03      0.139304D+03
 Beta(-2w;w,w) w= 1907.0nm:
                  (au)         (10**-30 esu)      (10**-50 SI)
   || (z)     0.386305D+05      0.333738D+03      0.123863D+03
   _|_(z)     0.130387D+05      0.112644D+03      0.418068D+02
   x          0.235081D+05      0.203091D+03      0.753754D+02
   y          0.634547D+03      0.548199D+01      0.203459D+01
   z          0.193153D+06      0.166869D+04      0.619317D+03
   ||         0.389158D+05      0.336202D+03      0.124778D+03
   xxx        0.963226D+02      0.832152D+00      0.308845D+00
   yxx        0.971734D+01      0.839502D-01      0.311573D-01
   zxx        0.826172D+03      0.713748D+01      0.264901D+01
   xyx        0.102236D+02      0.883236D-01      0.327804D-01
   yyx        0.421457D+03      0.364106D+01      0.135134D+01
   zyx        0.551400D+02      0.476367D+00      0.176799D+00
   xyy        0.484453D+03      0.418530D+01      0.155333D+01
   yyy        0.370174D+02      0.319801D+00      0.118691D+00
   zyy        0.367925D+04      0.317858D+02      0.117970D+02
   xzx        0.840908D+03      0.726479D+01      0.269626D+01
   yzx        0.512410D+02      0.442682D+00      0.164297D+00
   zzx        0.729162D+04      0.629939D+02      0.233796D+02
   xzy        0.506963D+02      0.437976D+00      0.162551D+00
   yzy        0.317896D+04      0.274637D+02      0.101929D+02
   zzy        0.163952D+03      0.141641D+01      0.525688D+00
   xzz        0.730850D+04      0.631398D+02      0.234337D+02
   yzz        0.165428D+03      0.142917D+01      0.530421D+00
   zzz        0.602025D+05      0.520103D+03      0.193031D+03

 ----------------------------------------------------------------------
 1\1\GINC-NEQC29\SP\RB3LYP\Gen\C28H17F8N3Pt1\GUEST\18-May-2023\0\\#p B3
 LYP/gen gfinput pseudo=read Integral(Grid=UltraFine,Acc2E=12) scf=maxc
 ycle=200 Polar=(DCSHG) CPHF=RdFreq scrf=(iefpcm,read,solvent=n,n-DiMet
 hylFormamide)\\Primeira Hiperpolarizabilidade\\0,1\Pt,0,1.008098,-0.00
 2554,-0.023564\C,0,-1.040778,0.006667,-0.073725\N,0,1.351872,-2.030588
 ,-0.021851\N,0,1.371945,2.022246,-0.008714\C,0,0.428756,2.975399,-0.04
 6602\C,0,0.398749,-2.973631,-0.063676\C,0,2.709059,2.370496,0.042286\C
 ,0,2.685437,-2.392871,0.022148\C,0,3.612802,-1.258329,0.063032\C,0,3.6
 25038,1.226484,0.074159\C,0,5.026887,1.184637,0.123314\C,0,3.072337,3.
 724956,0.058798\C,0,2.092345,4.709726,0.020417\C,0,0.74498,4.330839,-0
 .035451\C,0,5.014989,-1.230647,0.112194\C,0,5.723602,-0.026575,0.14265
 8\C,0,3.034924,-3.751151,0.020208\C,0,2.044754,-4.725434,-0.024916\H,0
 ,4.086755,-4.028899,0.051962\C,0,0.700942,-4.332187,-0.06618\C,0,2.958
 548,-0.012537,0.045884\F,0,5.721231,-2.369922,0.130392\F,0,5.744306,2.
 316718,0.152261\H,0,-0.628075,-2.608296,-0.098527\C,0,-0.398457,-5.362
 28,-0.086817\H,0,2.317868,-5.782506,-0.030833\H,0,-0.601877,2.621014,-
 0.083278\C,0,-0.341058,5.372771,-0.108014\H,0,4.126637,3.99134,0.10292
 3\H,0,2.375744,5.7639,0.037457\C,0,-2.277388,0.010047,-0.060642\C,0,-3
 .707803,0.013889,-0.028194\C,0,-4.447523,1.218102,0.023999\C,0,-4.4555
 8,-1.186483,-0.034584\C,0,-5.837091,1.229509,0.071927\C,0,-5.845235,-1
 .190852,0.01257\C,0,-6.585491,0.021157,0.070201\N,0,-7.961809,0.02453,
 0.122795\H,0,6.813007,-0.032126,0.180343\F,0,-0.164121,6.329015,0.8211
 11\F,0,-1.561973,4.845788,0.078463\F,0,-0.351158,5.992134,-1.303574\F,
 0,-1.600001,-4.815854,-0.333542\F,0,-0.487575,-6.010889,1.089708\F,0,-
 0.175967,-6.29735,-1.027787\H,0,-3.910527,2.170366,0.029839\H,0,-6.346
 824,2.1915,0.112978\H,0,-6.361574,-2.1502,0.005956\H,0,-3.925014,-2.14
 1478,-0.075718\C,0,-8.685382,1.280514,0.185956\C,0,-8.693844,-1.228145
 ,0.124189\H,0,-8.491668,1.917746,-0.696229\H,0,-8.422404,1.868759,1.08
 4316\H,0,-9.762669,1.077962,0.222194\H,0,-8.432484,-1.862718,0.990876\
 H,0,-8.506737,-1.821219,-0.789689\H,0,-9.76963,-1.020469,0.17373\\Vers
 ion=EM64L-G09RevD.01\State=1-A\HF=-2159.5432568\RMSD=8.561e-09\Dipole=
 1.4430927,-0.0109169,0.166126\Polar=934.7182189,-0.4650873,700.7800129
 ,2.8488943,3.1138747,223.8920062\HyperPolar=50176.3637167,-158.9688562
 ,1795.0042562,-9.2211618,-257.5961354,-18.6443193,-71.5359796,-87.1217
 822,-0.0164706,-24.610512\Quadrupole=34.4531837,-5.6092563,-28.8439274
 ,-0.1217178,-0.9264708,0.7931426\PG=C01 [X(C28H17F8N3Pt1)]\\@


 TO BEHOLD HARMS OF OUR OWN HANDS DOING,
 WHERE NONE BESIDE US WROUGHT,
 CAUSES SHARP RUING...

                                         SOPHOCLES
 Job cpu time:       1 days  5 hours 27 minutes 42.5 seconds.
 File lengths (MBytes):  RWF=   4048 Int=      0 D2E=      0 Chk=     22 Scr=      1
 Normal termination of Gaussian 09 at Thu May 18 00:55:43 2023.
