 Entering Gaussian System, Link 0=g09
 Input=OPT_B3LYP_LANL2TZF_def2SVP_ONL_B3LYP_LANL2TZF_jorgeTZP_IEFPCM.com
 Output=OPT_B3LYP_LANL2TZF_def2SVP_ONL_B3LYP_LANL2TZF_jorgeTZP_IEFPCM.log
 Initial command:
 /home/scr/programs/g09/l1.exe "/home/scr/guest/Gau-24844.inp" -scrdir="/home/scr/guest/"
 Entering Link 1 = /home/scr/programs/g09/l1.exe PID=     24845.
  
 Copyright (c) 1988,1990,1992,1993,1995,1998,2003,2009,2013,
            Gaussian, Inc.  All Rights Reserved.
  
 This is part of the Gaussian(R) 09 program.  It is based on
 the Gaussian(R) 03 system (copyright 2003, Gaussian, Inc.),
 the Gaussian(R) 98 system (copyright 1998, Gaussian, Inc.),
 the Gaussian(R) 94 system (copyright 1995, Gaussian, Inc.),
 the Gaussian 92(TM) system (copyright 1992, Gaussian, Inc.),
 the Gaussian 90(TM) system (copyright 1990, Gaussian, Inc.),
 the Gaussian 88(TM) system (copyright 1988, Gaussian, Inc.),
 the Gaussian 86(TM) system (copyright 1986, Carnegie Mellon
 University), and the Gaussian 82(TM) system (copyright 1983,
 Carnegie Mellon University). Gaussian is a federally registered
 trademark of Gaussian, Inc.
  
 This software contains proprietary and confidential information,
 including trade secrets, belonging to Gaussian, Inc.
  
 This software is provided under written license and may be
 used, copied, transmitted, or stored only in accord with that
 written license.
  
 The following legend is applicable only to US Government
 contracts under FAR:
  
                    RESTRICTED RIGHTS LEGEND
  
 Use, reproduction and disclosure by the US Government is
 subject to restrictions as set forth in subparagraphs (a)
 and (c) of the Commercial Computer Software - Restricted
 Rights clause in FAR 52.227-19.
  
 Gaussian, Inc.
 340 Quinnipiac St., Bldg. 40, Wallingford CT 06492
  
  
 ---------------------------------------------------------------
 Warning -- This program may not be used in any manner that
 competes with the business of Gaussian, Inc. or will provide
 assistance to any competitor of Gaussian, Inc.  The licensee
 of this program is prohibited from giving any competitor of
 Gaussian, Inc. access to this program.  By using this program,
 the user acknowledges that Gaussian, Inc. is engaged in the
 business of creating and licensing software in the field of
 computational chemistry and represents and warrants to the
 licensee that it is not a competitor of Gaussian, Inc. and that
 it will not use this program in any manner prohibited above.
 ---------------------------------------------------------------
  

 Cite this work as:
 Gaussian 09, Revision D.01,
 M. J. Frisch, G. W. Trucks, H. B. Schlegel, G. E. Scuseria, 
 M. A. Robb, J. R. Cheeseman, G. Scalmani, V. Barone, B. Mennucci, 
 G. A. Petersson, H. Nakatsuji, M. Caricato, X. Li, H. P. Hratchian, 
 A. F. Izmaylov, J. Bloino, G. Zheng, J. L. Sonnenberg, M. Hada, 
 M. Ehara, K. Toyota, R. Fukuda, J. Hasegawa, M. Ishida, T. Nakajima, 
 Y. Honda, O. Kitao, H. Nakai, T. Vreven, J. A. Montgomery, Jr., 
 J. E. Peralta, F. Ogliaro, M. Bearpark, J. J. Heyd, E. Brothers, 
 K. N. Kudin, V. N. Staroverov, T. Keith, R. Kobayashi, J. Normand, 
 K. Raghavachari, A. Rendell, J. C. Burant, S. S. Iyengar, J. Tomasi, 
 M. Cossi, N. Rega, J. M. Millam, M. Klene, J. E. Knox, J. B. Cross, 
 V. Bakken, C. Adamo, J. Jaramillo, R. Gomperts, R. E. Stratmann, 
 O. Yazyev, A. J. Austin, R. Cammi, C. Pomelli, J. W. Ochterski, 
 R. L. Martin, K. Morokuma, V. G. Zakrzewski, G. A. Voth, 
 P. Salvador, J. J. Dannenberg, S. Dapprich, A. D. Daniels, 
 O. Farkas, J. B. Foresman, J. V. Ortiz, J. Cioslowski, 
 and D. J. Fox, Gaussian, Inc., Wallingford CT, 2013.
 
 ******************************************
 Gaussian 09:  EM64L-G09RevD.01 24-Apr-2013
                19-May-2023 
 ******************************************
 %chk=OPT_B3LYP_LANL2TZF_def2SVP_ONL_B3LYP_LANL2TZF_jorge-TZP_IEFPCM.chk
 %mem=100Gb
 %nproc=32
 Will use up to   32 processors via shared memory.
 ----------------------------------------------------------------------
 #p B3LYP/gen gfinput pseudo=read Integral(Grid=UltraFine,Acc2E=12) scf
 =maxcycle=200 Polar=(DCSHG) CPHF=RdFreq scrf=(iefpcm,read,solvent=n,n-
 DiMethylFormamide)
 ----------------------------------------------------------------------
 1/38=1,40=2,83=1/1;
 2/12=2,17=6,18=5,40=1/2;
 3/5=7,11=2,16=1,17=8,24=10,25=1,30=1,70=2203,72=148,74=-5,75=-5/1,2,3;
 4//1;
 5/5=2,7=200,38=5,53=148,87=12,98=1/2;
 8/6=4,10=90,11=11,87=12/1;
 10/6=20001,13=10,72=3,87=12/2;
 6/7=2,8=2,9=2,10=2,28=1/1;
 99/5=1,9=1/99;
 Leave Link    1 at Fri May 19 11:55:51 2023, MaxMem= 13421772800 cpu:         9.3
 (Enter /home/scr/programs/g09/l101.exe)
 ------------------------------
 Primeira Hiperpolarizabilidade
 ------------------------------
 Symbolic Z-matrix:
 Charge =  0 Multiplicity = 1
 Pt                    1.0081   -0.00255  -0.02356 
 C                    -1.04078   0.00667  -0.07373 
 N                     1.35187  -2.03059  -0.02185 
 N                     1.37195   2.02225  -0.00871 
 C                     0.42876   2.9754   -0.0466 
 C                     0.39875  -2.97363  -0.06368 
 C                     2.70906   2.3705    0.04229 
 C                     2.68544  -2.39287   0.02215 
 C                     3.6128   -1.25833   0.06303 
 C                     3.62504   1.22648   0.07416 
 C                     5.02689   1.18464   0.12331 
 C                     3.07234   3.72496   0.0588 
 C                     2.09234   4.70973   0.02042 
 C                     0.74498   4.33084  -0.03545 
 C                     5.01499  -1.23065   0.11219 
 C                     5.7236   -0.02658   0.14266 
 C                     3.03492  -3.75115   0.02021 
 C                     2.04475  -4.72543  -0.02492 
 H                     4.08676  -4.0289    0.05196 
 C                     0.70094  -4.33219  -0.06618 
 C                     2.95855  -0.01254   0.04588 
 F                     5.72123  -2.36992   0.13039 
 F                     5.74431   2.31672   0.15226 
 H                    -0.62808  -2.6083   -0.09853 
 C                    -0.39846  -5.36228  -0.08682 
 H                     2.31787  -5.78251  -0.03083 
 H                    -0.60188   2.62101  -0.08328 
 C                    -0.34106   5.37277  -0.10801 
 H                     4.12664   3.99134   0.10292 
 H                     2.37574   5.7639    0.03746 
 C                    -2.27739   0.01005  -0.06064 
 C                    -3.7078    0.01389  -0.02819 
 C                    -4.44752   1.2181    0.024 
 C                    -4.45558  -1.18648  -0.03458 
 C                    -5.83709   1.22951   0.07193 
 C                    -5.84524  -1.19085   0.01257 
 C                    -6.58549   0.02116   0.0702 
 N                    -7.96181   0.02453   0.1228 
 H                     6.81301  -0.03213   0.18034 
 F                    -0.16412   6.32902   0.82111 
 F                    -1.56197   4.84579   0.07846 
 F                    -0.35116   5.99213  -1.30357 
 F                    -1.6      -4.81585  -0.33354 
 F                    -0.48758  -6.01089   1.08971 
 F                    -0.17597  -6.29735  -1.02779 
 H                    -3.91053   2.17037   0.02984 
 H                    -6.34682   2.1915    0.11298 
 H                    -6.36157  -2.1502    0.00596 
 H                    -3.92501  -2.14148  -0.07572 
 C                    -8.68538   1.28051   0.18596 
 C                    -8.69384  -1.22815   0.12419 
 H                    -8.49167   1.91775  -0.69623 
 H                    -8.4224    1.86876   1.08432 
 H                    -9.76267   1.07796   0.22219 
 H                    -8.43248  -1.86272   0.99088 
 H                    -8.50674  -1.82122  -0.78969 
 H                    -9.76963  -1.02047   0.17373 
 
 NAtoms=     57 NQM=       57 NQMF=       0 NMMI=      0 NMMIF=      0
                NMic=       0 NMicF=      0.
                    Isotopes and Nuclear Properties:
 (Nuclear quadrupole moments (NQMom) in fm**2, nuclear magnetic moments (NMagM)
  in nuclear magnetons)

  Atom         1           2           3           4           5           6           7           8           9          10
 IAtWgt=         195          12          14          14          12          12          12          12          12          12
 AtmWgt= 194.9648000  12.0000000  14.0030740  14.0030740  12.0000000  12.0000000  12.0000000  12.0000000  12.0000000  12.0000000
 NucSpn=           1           0           2           2           0           0           0           0           0           0
 AtZEff=   0.0000000   0.0000000   0.0000000   0.0000000   0.0000000   0.0000000   0.0000000   0.0000000   0.0000000   0.0000000
 NQMom=    0.0000000   0.0000000   2.0440000   2.0440000   0.0000000   0.0000000   0.0000000   0.0000000   0.0000000   0.0000000
 NMagM=    0.6095000   0.0000000   0.4037610   0.4037610   0.0000000   0.0000000   0.0000000   0.0000000   0.0000000   0.0000000
 AtZNuc=  78.0000000   6.0000000   7.0000000   7.0000000   6.0000000   6.0000000   6.0000000   6.0000000   6.0000000   6.0000000

  Atom        11          12          13          14          15          16          17          18          19          20
 IAtWgt=          12          12          12          12          12          12          12          12           1          12
 AtmWgt=  12.0000000  12.0000000  12.0000000  12.0000000  12.0000000  12.0000000  12.0000000  12.0000000   1.0078250  12.0000000
 NucSpn=           0           0           0           0           0           0           0           0           1           0
 AtZEff=   0.0000000   0.0000000   0.0000000   0.0000000   0.0000000   0.0000000   0.0000000   0.0000000   0.0000000   0.0000000
 NQMom=    0.0000000   0.0000000   0.0000000   0.0000000   0.0000000   0.0000000   0.0000000   0.0000000   0.0000000   0.0000000
 NMagM=    0.0000000   0.0000000   0.0000000   0.0000000   0.0000000   0.0000000   0.0000000   0.0000000   2.7928460   0.0000000
 AtZNuc=   6.0000000   6.0000000   6.0000000   6.0000000   6.0000000   6.0000000   6.0000000   6.0000000   1.0000000   6.0000000

  Atom        21          22          23          24          25          26          27          28          29          30
 IAtWgt=          12          19          19           1          12           1           1          12           1           1
 AtmWgt=  12.0000000  18.9984033  18.9984033   1.0078250  12.0000000   1.0078250   1.0078250  12.0000000   1.0078250   1.0078250
 NucSpn=           0           1           1           1           0           1           1           0           1           1
 AtZEff=   0.0000000   0.0000000   0.0000000   0.0000000   0.0000000   0.0000000   0.0000000   0.0000000   0.0000000   0.0000000
 NQMom=    0.0000000   0.0000000   0.0000000   0.0000000   0.0000000   0.0000000   0.0000000   0.0000000   0.0000000   0.0000000
 NMagM=    0.0000000   2.6288670   2.6288670   2.7928460   0.0000000   2.7928460   2.7928460   0.0000000   2.7928460   2.7928460
 AtZNuc=   6.0000000   9.0000000   9.0000000   1.0000000   6.0000000   1.0000000   1.0000000   6.0000000   1.0000000   1.0000000

  Atom        31          32          33          34          35          36          37          38          39          40
 IAtWgt=          12          12          12          12          12          12          12          14           1          19
 AtmWgt=  12.0000000  12.0000000  12.0000000  12.0000000  12.0000000  12.0000000  12.0000000  14.0030740   1.0078250  18.9984033
 NucSpn=           0           0           0           0           0           0           0           2           1           1
 AtZEff=   0.0000000   0.0000000   0.0000000   0.0000000   0.0000000   0.0000000   0.0000000   0.0000000   0.0000000   0.0000000
 NQMom=    0.0000000   0.0000000   0.0000000   0.0000000   0.0000000   0.0000000   0.0000000   2.0440000   0.0000000   0.0000000
 NMagM=    0.0000000   0.0000000   0.0000000   0.0000000   0.0000000   0.0000000   0.0000000   0.4037610   2.7928460   2.6288670
 AtZNuc=   6.0000000   6.0000000   6.0000000   6.0000000   6.0000000   6.0000000   6.0000000   7.0000000   1.0000000   9.0000000

  Atom        41          42          43          44          45          46          47          48          49          50
 IAtWgt=          19          19          19          19          19           1           1           1           1          12
 AtmWgt=  18.9984033  18.9984033  18.9984033  18.9984033  18.9984033   1.0078250   1.0078250   1.0078250   1.0078250  12.0000000
 NucSpn=           1           1           1           1           1           1           1           1           1           0
 AtZEff=   0.0000000   0.0000000   0.0000000   0.0000000   0.0000000   0.0000000   0.0000000   0.0000000   0.0000000   0.0000000
 NQMom=    0.0000000   0.0000000   0.0000000   0.0000000   0.0000000   0.0000000   0.0000000   0.0000000   0.0000000   0.0000000
 NMagM=    2.6288670   2.6288670   2.6288670   2.6288670   2.6288670   2.7928460   2.7928460   2.7928460   2.7928460   0.0000000
 AtZNuc=   9.0000000   9.0000000   9.0000000   9.0000000   9.0000000   1.0000000   1.0000000   1.0000000   1.0000000   6.0000000

  Atom        51          52          53          54          55          56          57
 IAtWgt=          12           1           1           1           1           1           1
 AtmWgt=  12.0000000   1.0078250   1.0078250   1.0078250   1.0078250   1.0078250   1.0078250
 NucSpn=           0           1           1           1           1           1           1
 AtZEff=   0.0000000   0.0000000   0.0000000   0.0000000   0.0000000   0.0000000   0.0000000
 NQMom=    0.0000000   0.0000000   0.0000000   0.0000000   0.0000000   0.0000000   0.0000000
 NMagM=    0.0000000   2.7928460   2.7928460   2.7928460   2.7928460   2.7928460   2.7928460
 AtZNuc=   6.0000000   1.0000000   1.0000000   1.0000000   1.0000000   1.0000000   1.0000000
 Using perturbation frequencies:    0.000000    0.023893
 Leave Link  101 at Fri May 19 11:55:51 2023, MaxMem= 13421772800 cpu:         5.1
 (Enter /home/scr/programs/g09/l202.exe)
 Stoichiometry    C28H17F8N3Pt
 Framework group  C1[X(C28H17F8N3Pt)]
 Deg. of freedom   165
 Full point group                 C1      NOp   1
 Largest Abelian subgroup         C1      NOp   1
 Largest concise Abelian subgroup C1      NOp   1
                         Standard orientation:                         
 ---------------------------------------------------------------------
 Center     Atomic      Atomic             Coordinates (Angstroms)
 Number     Number       Type             X           Y           Z
 ---------------------------------------------------------------------
      1         78           0       -1.008098   -0.002554    0.023564
      2          6           0        1.040778    0.006667    0.073725
      3          7           0       -1.351872   -2.030588    0.021851
      4          7           0       -1.371945    2.022246    0.008714
      5          6           0       -0.428755    2.975399    0.046602
      6          6           0       -0.398749   -2.973631    0.063676
      7          6           0       -2.709059    2.370497   -0.042286
      8          6           0       -2.685437   -2.392870   -0.022148
      9          6           0       -3.612802   -1.258328   -0.063032
     10          6           0       -3.625038    1.226485   -0.074159
     11          6           0       -5.026887    1.184638   -0.123314
     12          6           0       -3.072336    3.724957   -0.058798
     13          6           0       -2.092344    4.709726   -0.020417
     14          6           0       -0.744979    4.330839    0.035451
     15          6           0       -5.014989   -1.230646   -0.112194
     16          6           0       -5.723602   -0.026574   -0.142658
     17          6           0       -3.034925   -3.751150   -0.020208
     18          6           0       -2.044755   -4.725434    0.024916
     19          1           0       -4.086756   -4.028898   -0.051962
     20          6           0       -0.700943   -4.332187    0.066180
     21          6           0       -2.958548   -0.012536   -0.045884
     22          9           0       -5.721231   -2.369921   -0.130392
     23          9           0       -5.744306    2.316719   -0.152261
     24          1           0        0.628075   -2.608296    0.098527
     25          6           0        0.398456   -5.362280    0.086817
     26          1           0       -2.317869   -5.782506    0.030833
     27          1           0        0.601877    2.621014    0.083278
     28          6           0        0.341059    5.372771    0.108014
     29          1           0       -4.126636    3.991341   -0.102923
     30          1           0       -2.375743    5.763900   -0.037457
     31          6           0        2.277388    0.010047    0.060642
     32          6           0        3.707803    0.013889    0.028194
     33          6           0        4.447523    1.218101   -0.023999
     34          6           0        4.455580   -1.186484    0.034584
     35          6           0        5.837091    1.229508   -0.071927
     36          6           0        5.845235   -1.190853   -0.012570
     37          6           0        6.585491    0.021156   -0.070201
     38          7           0        7.961809    0.024529   -0.122795
     39          1           0       -6.813007   -0.032125   -0.180343
     40          9           0        0.164122    6.329015   -0.821111
     41          9           0        1.561974    4.845788   -0.078463
     42          9           0        0.351159    5.992134    1.303574
     43          9           0        1.600000   -4.815854    0.333542
     44          9           0        0.487574   -6.010889   -1.089708
     45          9           0        0.175966   -6.297350    1.027787
     46          1           0        3.910527    2.170366   -0.029839
     47          1           0        6.346824    2.191499   -0.112978
     48          1           0        6.361574   -2.150201   -0.005956
     49          1           0        3.925014   -2.141478    0.075718
     50          6           0        8.685382    1.280513   -0.185956
     51          6           0        8.693844   -1.228146   -0.124189
     52          1           0        8.491668    1.917745    0.696229
     53          1           0        8.422404    1.868758   -1.084316
     54          1           0        9.762669    1.077961   -0.222194
     55          1           0        8.432484   -1.862719   -0.990876
     56          1           0        8.506737   -1.821220    0.789689
     57          1           0        9.769630   -1.020470   -0.173730
 ---------------------------------------------------------------------
 Rotational constants (GHZ):      0.0734786      0.0557567      0.0320899
 Leave Link  202 at Fri May 19 11:55:51 2023, MaxMem= 13421772800 cpu:         2.0
 (Enter /home/scr/programs/g09/l301.exe)
 General basis read from cards:  (5D, 7F)
 Centers:      19     24     26     27     29     30     39     46     47     48
 Centers:      49     52     53     54     55     56     57
 S 3 1.00
     Exponent=  3.4877583690D+01 Coefficients=  2.3532300000D-02
     Exponent=  5.2339728100D+00 Coefficients=  1.7671660000D-01
     Exponent=  1.1850334200D+00 Coefficients=  7.9975110000D-01
 S 1 1.00
     Exponent=  3.2833943000D-01 Coefficients=  1.0000000000D+00
 S 1 1.00
     Exponent=  1.1031918000D-01 Coefficients=  1.0000000000D+00
 P 1 1.00
     Exponent=  7.1884400000D-01 Coefficients=  1.0000000000D+00
 P 1 1.00
     Exponent=  3.5000000000D-01 Coefficients=  1.0000000000D+00
 D 1 1.00
     Exponent=  1.0750600000D+00 Coefficients=  1.0000000000D+00
 ****
 Centers:       2      5      6      7      8      9     10     11     12     13
 Centers:      14     15     16     17     18     20     21     25     28     31
 Centers:      32     33     34     35     36     37     50     51
 S 5 1.00
     Exponent=  7.6150599911D+03 Coefficients=  1.7784000000D-03
     Exponent=  1.1450868461D+03 Coefficients=  1.3668000000D-02
     Exponent=  2.6191952431D+02 Coefficients=  6.9290800000D-02
     Exponent=  7.4668341960D+01 Coefficients=  2.6315290000D-01
     Exponent=  2.4405512020D+01 Coefficients=  7.3444820000D-01
 S 2 1.00
     Exponent=  8.6867901300D+00 Coefficients=  5.8853140000D-01
     Exponent=  3.2365762300D+00 Coefficients=  4.5361700000D-01
 S 1 1.00
     Exponent=  1.3017999900D+00 Coefficients=  1.0000000000D+00
 S 1 1.00
     Exponent=  5.2768873000D-01 Coefficients=  1.0000000000D+00
 S 1 1.00
     Exponent=  1.5694534000D-01 Coefficients=  1.0000000000D+00
 P 4 1.00
     Exponent=  3.4507679360D+01 Coefficients=  1.1403800000D-02
     Exponent=  7.9130444100D+00 Coefficients=  7.6596300000D-02
     Exponent=  2.3661545800D+00 Coefficients=  3.0297410000D-01
     Exponent=  8.1172425000D-01 Coefficients=  7.2645440000D-01
 P 1 1.00
     Exponent=  3.1228882000D-01 Coefficients=  1.0000000000D+00
 P 1 1.00
     Exponent=  1.1400266000D-01 Coefficients=  1.0000000000D+00
 D 1 1.00
     Exponent=  1.1540490000D+00 Coefficients=  1.0000000000D+00
 D 1 1.00
     Exponent=  3.5112860000D-01 Coefficients=  1.0000000000D+00
 F 1 1.00
     Exponent=  8.1931200000D-01 Coefficients=  1.0000000000D+00
 ****
 Centers:       3      4     38
 S 5 1.00
     Exponent=  1.0259656694D+04 Coefficients=  1.7931000000D-03
     Exponent=  1.5423686460D+03 Coefficients=  1.3783300000D-02
     Exponent=  3.5292239285D+02 Coefficients=  6.9801800000D-02
     Exponent=  1.0080632697D+02 Coefficients=  2.6412690000D-01
     Exponent=  3.3107253940D+01 Coefficients=  7.3280010000D-01
 S 2 1.00
     Exponent=  1.1882539280D+01 Coefficients=  5.9137630000D-01
     Exponent=  4.4679082900D+00 Coefficients=  4.4996840000D-01
 S 1 1.00
     Exponent=  1.1967643300D+00 Coefficients=  1.0000000000D+00
 S 1 1.00
     Exponent=  6.3915992000D-01 Coefficients=  1.0000000000D+00
 S 1 1.00
     Exponent=  1.9744232000D-01 Coefficients=  1.0000000000D+00
 P 4 1.00
     Exponent=  4.9113760090D+01 Coefficients=  1.1485700000D-02
     Exponent=  1.1325410370D+01 Coefficients=  7.8635700000D-02
     Exponent=  3.4224968600D+00 Coefficients=  3.0872820000D-01
     Exponent=  1.1785157000D+00 Coefficients=  7.1948750000D-01
 P 1 1.00
     Exponent=  4.3449114000D-01 Coefficients=  1.0000000000D+00
 P 1 1.00
     Exponent=  1.5193747000D-01 Coefficients=  1.0000000000D+00
 D 1 1.00
     Exponent=  1.7291770000D+00 Coefficients=  1.0000000000D+00
 D 1 1.00
     Exponent=  5.0834600000D-01 Coefficients=  1.0000000000D+00
 F 1 1.00
     Exponent=  1.1635804000D+00 Coefficients=  1.0000000000D+00
 ****
 Centers:      22     23     40     41     42     43     44     45
 S 5 1.00
     Exponent=  1.6736043322D+04 Coefficients=  1.8033000000D-03
     Exponent=  2.5174726694D+03 Coefficients=  1.3854000000D-02
     Exponent=  5.7595217890D+02 Coefficients=  7.0210200000D-02
     Exponent=  1.6457735695D+02 Coefficients=  2.6534470000D-01
     Exponent=  5.4273857370D+01 Coefficients=  7.3108170000D-01
 S 2 1.00
     Exponent=  1.9679310670D+01 Coefficients=  5.9666100000D-01
     Exponent=  7.4954307200D+00 Coefficients=  4.4352670000D-01
 S 1 1.00
     Exponent=  1.8856802500D+00 Coefficients=  1.0000000000D+00
 S 1 1.00
     Exponent=  9.7986789000D-01 Coefficients=  1.0000000000D+00
 S 1 1.00
     Exponent=  3.2385317000D-01 Coefficients=  1.0000000000D+00
 P 4 1.00
     Exponent=  8.0496023120D+01 Coefficients=  1.2269400000D-02
     Exponent=  1.8653993400D+01 Coefficients=  8.5419700000D-02
     Exponent=  5.7027374300D+00 Coefficients=  3.2604310000D-01
     Exponent=  1.9554775500D+00 Coefficients=  7.0021750000D-01
 P 1 1.00
     Exponent=  6.8295355000D-01 Coefficients=  1.0000000000D+00
 P 1 1.00
     Exponent=  2.2044626000D-01 Coefficients=  1.0000000000D+00
 D 1 1.00
     Exponent=  3.1814699900D+00 Coefficients=  1.0000000000D+00
 D 1 1.00
     Exponent=  8.9032420000D-01 Coefficients=  1.0000000000D+00
 F 1 1.00
     Exponent=  1.9935599900D+00 Coefficients=  1.0000000000D+00
 ****
 Centers:       1
 S 1 1.00
     Exponent=  2.5470000000D+00 Coefficients=  1.0000000000D+00
 S 1 1.00
     Exponent=  1.6140000000D+00 Coefficients=  1.0000000000D+00
 S 1 1.00
     Exponent=  5.1670000000D-01 Coefficients=  1.0000000000D+00
 S 1 1.00
     Exponent=  2.6510000000D-01 Coefficients=  1.0000000000D+00
 S 1 1.00
     Exponent=  5.8000000000D-02 Coefficients=  1.0000000000D+00
 P 1 1.00
     Exponent=  2.9110000000D+00 Coefficients=  1.0000000000D+00
 P 1 1.00
     Exponent=  1.8360000000D+00 Coefficients=  1.0000000000D+00
 P 1 1.00
     Exponent=  5.9820000000D-01 Coefficients=  1.0000000000D+00
 P 1 1.00
     Exponent=  9.9600000000D-02 Coefficients=  1.0000000000D+00
 P 1 1.00
     Exponent=  2.9000000000D-02 Coefficients=  1.0000000000D+00
 D 1 1.00
     Exponent=  1.2430000000D+00 Coefficients=  1.0000000000D+00
 D 1 1.00
     Exponent=  4.2710000000D-01 Coefficients=  1.0000000000D+00
 D 1 1.00
     Exponent=  1.3700000000D-01 Coefficients=  1.0000000000D+00
 F 1 1.00
     Exponent=  9.9300000000D-01 Coefficients=  1.0000000000D+00
 ****
 ======================================================================================================
                                       Pseudopotential Parameters
 ======================================================================================================
  Center     Atomic      Valence      Angular      Power
  Number     Number     Electrons     Momentum     of R      Exponent        Coefficient   SO-Coeffient
 ======================================================================================================
    1         78           18
                                      G and up 
                                                     1      728.9394056       -0.16192680    0.00000000
                                                     2      320.6567800    -1320.28738520    0.00000000
                                                     2       52.8680174     -298.31781350    0.00000000
                                                     2       12.0280128      -87.58370650    0.00000000
                                                     2        3.5238913       -8.14932740    0.00000000
                                      S - G
                                                     0      409.4437358        2.73342180    0.00000000
                                                     1      274.5419231       59.70243290    0.00000000
                                                     2      127.5658570      891.45895500    0.00000000
                                                     2       32.9036631      368.44676560    0.00000000
                                                     2        5.0593880      238.02630900    0.00000000
                                                     2        4.1506556     -107.05564540    0.00000000
                                      P - G
                                                     0      466.1728892        1.88785680    0.00000000
                                                     1      120.7888259       76.01386290    0.00000000
                                                     2       36.4118791      343.55111160    0.00000000
                                                     2        5.6985408      119.49117860    0.00000000
                                      D - G
                                                     0      249.5650763        2.93436780    0.00000000
                                                     1      126.6678585       59.33065710    0.00000000
                                                     2       63.1430586      452.44451940    0.00000000
                                                     2       17.9059470      210.47694790    0.00000000
                                                     2        4.2239373       58.62541120    0.00000000
                                      F - G
                                                     0      121.8158799        3.95342530    0.00000000
                                                     1       60.8757030       53.85551820    0.00000000
                                                     2       31.4767147      247.43051330    0.00000000
                                                     2        9.8811751      127.81879760    0.00000000
                                                     2        2.7319874       15.37720460    0.00000000
    2          6
                                   No pseudopotential on this center.
    3          7
                                   No pseudopotential on this center.
    4          7
                                   No pseudopotential on this center.
    5          6
                                   No pseudopotential on this center.
    6          6
                                   No pseudopotential on this center.
    7          6
                                   No pseudopotential on this center.
    8          6
                                   No pseudopotential on this center.
    9          6
                                   No pseudopotential on this center.
   10          6
                                   No pseudopotential on this center.
   11          6
                                   No pseudopotential on this center.
   12          6
                                   No pseudopotential on this center.
   13          6
                                   No pseudopotential on this center.
   14          6
                                   No pseudopotential on this center.
   15          6
                                   No pseudopotential on this center.
   16          6
                                   No pseudopotential on this center.
   17          6
                                   No pseudopotential on this center.
   18          6
                                   No pseudopotential on this center.
   19          1
                                   No pseudopotential on this center.
   20          6
                                   No pseudopotential on this center.
   21          6
                                   No pseudopotential on this center.
   22          9
                                   No pseudopotential on this center.
   23          9
                                   No pseudopotential on this center.
   24          1
                                   No pseudopotential on this center.
   25          6
                                   No pseudopotential on this center.
   26          1
                                   No pseudopotential on this center.
   27          1
                                   No pseudopotential on this center.
   28          6
                                   No pseudopotential on this center.
   29          1
                                   No pseudopotential on this center.
   30          1
                                   No pseudopotential on this center.
   31          6
                                   No pseudopotential on this center.
   32          6
                                   No pseudopotential on this center.
   33          6
                                   No pseudopotential on this center.
   34          6
                                   No pseudopotential on this center.
   35          6
                                   No pseudopotential on this center.
   36          6
                                   No pseudopotential on this center.
   37          6
                                   No pseudopotential on this center.
   38          7
                                   No pseudopotential on this center.
   39          1
                                   No pseudopotential on this center.
   40          9
                                   No pseudopotential on this center.
   41          9
                                   No pseudopotential on this center.
   42          9
                                   No pseudopotential on this center.
   43          9
                                   No pseudopotential on this center.
   44          9
                                   No pseudopotential on this center.
   45          9
                                   No pseudopotential on this center.
   46          1
                                   No pseudopotential on this center.
   47          1
                                   No pseudopotential on this center.
   48          1
                                   No pseudopotential on this center.
   49          1
                                   No pseudopotential on this center.
   50          6
                                   No pseudopotential on this center.
   51          6
                                   No pseudopotential on this center.
   52          1
                                   No pseudopotential on this center.
   53          1
                                   No pseudopotential on this center.
   54          1
                                   No pseudopotential on this center.
   55          1
                                   No pseudopotential on this center.
   56          1
                                   No pseudopotential on this center.
   57          1
                                   No pseudopotential on this center.
 ======================================================================================================
 Ernie: Thresh=  0.10000D-02 Tol=  0.10000D-05 Strict=F.
 AO basis set in the form of general basis input (Overlap normalization):
      1 0
 S   1 1.00       0.000000000000
      0.2547000000D+01  0.1000000000D+01
 S   1 1.00       0.000000000000
      0.1614000000D+01  0.1000000000D+01
 S   1 1.00       0.000000000000
      0.5167000000D+00  0.1000000000D+01
 S   1 1.00       0.000000000000
      0.2651000000D+00  0.1000000000D+01
 S   1 1.00       0.000000000000
      0.5800000000D-01  0.1000000000D+01
 P   1 1.00       0.000000000000
      0.2911000000D+01  0.1000000000D+01
 P   1 1.00       0.000000000000
      0.1836000000D+01  0.1000000000D+01
 P   1 1.00       0.000000000000
      0.5982000000D+00  0.1000000000D+01
 P   1 1.00       0.000000000000
      0.9960000000D-01  0.1000000000D+01
 P   1 1.00       0.000000000000
      0.2900000000D-01  0.1000000000D+01
 D   1 1.00       0.000000000000
      0.1243000000D+01  0.1000000000D+01
 D   1 1.00       0.000000000000
      0.4271000000D+00  0.1000000000D+01
 D   1 1.00       0.000000000000
      0.1370000000D+00  0.1000000000D+01
 F   1 1.00       0.000000000000
      0.9930000000D+00  0.1000000000D+01
 ****
      2 0
 S   5 1.00       0.000000000000
      0.7615059991D+04  0.1778400113D-02
      0.1145086846D+04  0.1366800087D-01
      0.2619195243D+03  0.6929080440D-01
      0.7466834196D+02  0.2631529167D+00
      0.2440551202D+02  0.7344482466D+00
 S   2 1.00       0.000000000000
      0.8686790130D+01  0.5885314354D+00
      0.3236576230D+01  0.4536170273D+00
 S   1 1.00       0.000000000000
      0.1301799990D+01  0.1000000000D+01
 S   1 1.00       0.000000000000
      0.5276887300D+00  0.1000000000D+01
 S   1 1.00       0.000000000000
      0.1569453400D+00  0.1000000000D+01
 P   4 1.00       0.000000000000
      0.3450767936D+02  0.1140380043D-01
      0.7913044410D+01  0.7659630289D-01
      0.2366154580D+01  0.3029741114D+00
      0.8117242500D+00  0.7264544274D+00
 P   1 1.00       0.000000000000
      0.3122888200D+00  0.1000000000D+01
 P   1 1.00       0.000000000000
      0.1140026600D+00  0.1000000000D+01
 D   1 1.00       0.000000000000
      0.1154049000D+01  0.1000000000D+01
 D   1 1.00       0.000000000000
      0.3511286000D+00  0.1000000000D+01
 F   1 1.00       0.000000000000
      0.8193120000D+00  0.1000000000D+01
 ****
      3 0
 S   5 1.00       0.000000000000
      0.1025965669D+05  0.1793100019D-02
      0.1542368646D+04  0.1378330014D-01
      0.3529223928D+03  0.6980180073D-01
      0.1008063270D+03  0.2641269028D+00
      0.3310725394D+02  0.7328001076D+00
 S   2 1.00       0.000000000000
      0.1188253928D+02  0.5913762818D+00
      0.4467908290D+01  0.4499683862D+00
 S   1 1.00       0.000000000000
      0.1196764330D+01  0.1000000000D+01
 S   1 1.00       0.000000000000
      0.6391599200D+00  0.1000000000D+01
 S   1 1.00       0.000000000000
      0.1974423200D+00  0.1000000000D+01
 P   4 1.00       0.000000000000
      0.4911376009D+02  0.1148570006D-01
      0.1132541037D+02  0.7863570042D-01
      0.3422496860D+01  0.3087282017D+00
      0.1178515700D+01  0.7194875039D+00
 P   1 1.00       0.000000000000
      0.4344911400D+00  0.1000000000D+01
 P   1 1.00       0.000000000000
      0.1519374700D+00  0.1000000000D+01
 D   1 1.00       0.000000000000
      0.1729177000D+01  0.1000000000D+01
 D   1 1.00       0.000000000000
      0.5083460000D+00  0.1000000000D+01
 F   1 1.00       0.000000000000
      0.1163580400D+01  0.1000000000D+01
 ****
      4 0
 S   5 1.00       0.000000000000
      0.1025965669D+05  0.1793100019D-02
      0.1542368646D+04  0.1378330014D-01
      0.3529223928D+03  0.6980180073D-01
      0.1008063270D+03  0.2641269028D+00
      0.3310725394D+02  0.7328001076D+00
 S   2 1.00       0.000000000000
      0.1188253928D+02  0.5913762818D+00
      0.4467908290D+01  0.4499683862D+00
 S   1 1.00       0.000000000000
      0.1196764330D+01  0.1000000000D+01
 S   1 1.00       0.000000000000
      0.6391599200D+00  0.1000000000D+01
 S   1 1.00       0.000000000000
      0.1974423200D+00  0.1000000000D+01
 P   4 1.00       0.000000000000
      0.4911376009D+02  0.1148570006D-01
      0.1132541037D+02  0.7863570042D-01
      0.3422496860D+01  0.3087282017D+00
      0.1178515700D+01  0.7194875039D+00
 P   1 1.00       0.000000000000
      0.4344911400D+00  0.1000000000D+01
 P   1 1.00       0.000000000000
      0.1519374700D+00  0.1000000000D+01
 D   1 1.00       0.000000000000
      0.1729177000D+01  0.1000000000D+01
 D   1 1.00       0.000000000000
      0.5083460000D+00  0.1000000000D+01
 F   1 1.00       0.000000000000
      0.1163580400D+01  0.1000000000D+01
 ****
      5 0
 S   5 1.00       0.000000000000
      0.7615059991D+04  0.1778400113D-02
      0.1145086846D+04  0.1366800087D-01
      0.2619195243D+03  0.6929080440D-01
      0.7466834196D+02  0.2631529167D+00
      0.2440551202D+02  0.7344482466D+00
 S   2 1.00       0.000000000000
      0.8686790130D+01  0.5885314354D+00
      0.3236576230D+01  0.4536170273D+00
 S   1 1.00       0.000000000000
      0.1301799990D+01  0.1000000000D+01
 S   1 1.00       0.000000000000
      0.5276887300D+00  0.1000000000D+01
 S   1 1.00       0.000000000000
      0.1569453400D+00  0.1000000000D+01
 P   4 1.00       0.000000000000
      0.3450767936D+02  0.1140380043D-01
      0.7913044410D+01  0.7659630289D-01
      0.2366154580D+01  0.3029741114D+00
      0.8117242500D+00  0.7264544274D+00
 P   1 1.00       0.000000000000
      0.3122888200D+00  0.1000000000D+01
 P   1 1.00       0.000000000000
      0.1140026600D+00  0.1000000000D+01
 D   1 1.00       0.000000000000
      0.1154049000D+01  0.1000000000D+01
 D   1 1.00       0.000000000000
      0.3511286000D+00  0.1000000000D+01
 F   1 1.00       0.000000000000
      0.8193120000D+00  0.1000000000D+01
 ****
      6 0
 S   5 1.00       0.000000000000
      0.7615059991D+04  0.1778400113D-02
      0.1145086846D+04  0.1366800087D-01
      0.2619195243D+03  0.6929080440D-01
      0.7466834196D+02  0.2631529167D+00
      0.2440551202D+02  0.7344482466D+00
 S   2 1.00       0.000000000000
      0.8686790130D+01  0.5885314354D+00
      0.3236576230D+01  0.4536170273D+00
 S   1 1.00       0.000000000000
      0.1301799990D+01  0.1000000000D+01
 S   1 1.00       0.000000000000
      0.5276887300D+00  0.1000000000D+01
 S   1 1.00       0.000000000000
      0.1569453400D+00  0.1000000000D+01
 P   4 1.00       0.000000000000
      0.3450767936D+02  0.1140380043D-01
      0.7913044410D+01  0.7659630289D-01
      0.2366154580D+01  0.3029741114D+00
      0.8117242500D+00  0.7264544274D+00
 P   1 1.00       0.000000000000
      0.3122888200D+00  0.1000000000D+01
 P   1 1.00       0.000000000000
      0.1140026600D+00  0.1000000000D+01
 D   1 1.00       0.000000000000
      0.1154049000D+01  0.1000000000D+01
 D   1 1.00       0.000000000000
      0.3511286000D+00  0.1000000000D+01
 F   1 1.00       0.000000000000
      0.8193120000D+00  0.1000000000D+01
 ****
      7 0
 S   5 1.00       0.000000000000
      0.7615059991D+04  0.1778400113D-02
      0.1145086846D+04  0.1366800087D-01
      0.2619195243D+03  0.6929080440D-01
      0.7466834196D+02  0.2631529167D+00
      0.2440551202D+02  0.7344482466D+00
 S   2 1.00       0.000000000000
      0.8686790130D+01  0.5885314354D+00
      0.3236576230D+01  0.4536170273D+00
 S   1 1.00       0.000000000000
      0.1301799990D+01  0.1000000000D+01
 S   1 1.00       0.000000000000
      0.5276887300D+00  0.1000000000D+01
 S   1 1.00       0.000000000000
      0.1569453400D+00  0.1000000000D+01
 P   4 1.00       0.000000000000
      0.3450767936D+02  0.1140380043D-01
      0.7913044410D+01  0.7659630289D-01
      0.2366154580D+01  0.3029741114D+00
      0.8117242500D+00  0.7264544274D+00
 P   1 1.00       0.000000000000
      0.3122888200D+00  0.1000000000D+01
 P   1 1.00       0.000000000000
      0.1140026600D+00  0.1000000000D+01
 D   1 1.00       0.000000000000
      0.1154049000D+01  0.1000000000D+01
 D   1 1.00       0.000000000000
      0.3511286000D+00  0.1000000000D+01
 F   1 1.00       0.000000000000
      0.8193120000D+00  0.1000000000D+01
 ****
      8 0
 S   5 1.00       0.000000000000
      0.7615059991D+04  0.1778400113D-02
      0.1145086846D+04  0.1366800087D-01
      0.2619195243D+03  0.6929080440D-01
      0.7466834196D+02  0.2631529167D+00
      0.2440551202D+02  0.7344482466D+00
 S   2 1.00       0.000000000000
      0.8686790130D+01  0.5885314354D+00
      0.3236576230D+01  0.4536170273D+00
 S   1 1.00       0.000000000000
      0.1301799990D+01  0.1000000000D+01
 S   1 1.00       0.000000000000
      0.5276887300D+00  0.1000000000D+01
 S   1 1.00       0.000000000000
      0.1569453400D+00  0.1000000000D+01
 P   4 1.00       0.000000000000
      0.3450767936D+02  0.1140380043D-01
      0.7913044410D+01  0.7659630289D-01
      0.2366154580D+01  0.3029741114D+00
      0.8117242500D+00  0.7264544274D+00
 P   1 1.00       0.000000000000
      0.3122888200D+00  0.1000000000D+01
 P   1 1.00       0.000000000000
      0.1140026600D+00  0.1000000000D+01
 D   1 1.00       0.000000000000
      0.1154049000D+01  0.1000000000D+01
 D   1 1.00       0.000000000000
      0.3511286000D+00  0.1000000000D+01
 F   1 1.00       0.000000000000
      0.8193120000D+00  0.1000000000D+01
 ****
      9 0
 S   5 1.00       0.000000000000
      0.7615059991D+04  0.1778400113D-02
      0.1145086846D+04  0.1366800087D-01
      0.2619195243D+03  0.6929080440D-01
      0.7466834196D+02  0.2631529167D+00
      0.2440551202D+02  0.7344482466D+00
 S   2 1.00       0.000000000000
      0.8686790130D+01  0.5885314354D+00
      0.3236576230D+01  0.4536170273D+00
 S   1 1.00       0.000000000000
      0.1301799990D+01  0.1000000000D+01
 S   1 1.00       0.000000000000
      0.5276887300D+00  0.1000000000D+01
 S   1 1.00       0.000000000000
      0.1569453400D+00  0.1000000000D+01
 P   4 1.00       0.000000000000
      0.3450767936D+02  0.1140380043D-01
      0.7913044410D+01  0.7659630289D-01
      0.2366154580D+01  0.3029741114D+00
      0.8117242500D+00  0.7264544274D+00
 P   1 1.00       0.000000000000
      0.3122888200D+00  0.1000000000D+01
 P   1 1.00       0.000000000000
      0.1140026600D+00  0.1000000000D+01
 D   1 1.00       0.000000000000
      0.1154049000D+01  0.1000000000D+01
 D   1 1.00       0.000000000000
      0.3511286000D+00  0.1000000000D+01
 F   1 1.00       0.000000000000
      0.8193120000D+00  0.1000000000D+01
 ****
     10 0
 S   5 1.00       0.000000000000
      0.7615059991D+04  0.1778400113D-02
      0.1145086846D+04  0.1366800087D-01
      0.2619195243D+03  0.6929080440D-01
      0.7466834196D+02  0.2631529167D+00
      0.2440551202D+02  0.7344482466D+00
 S   2 1.00       0.000000000000
      0.8686790130D+01  0.5885314354D+00
      0.3236576230D+01  0.4536170273D+00
 S   1 1.00       0.000000000000
      0.1301799990D+01  0.1000000000D+01
 S   1 1.00       0.000000000000
      0.5276887300D+00  0.1000000000D+01
 S   1 1.00       0.000000000000
      0.1569453400D+00  0.1000000000D+01
 P   4 1.00       0.000000000000
      0.3450767936D+02  0.1140380043D-01
      0.7913044410D+01  0.7659630289D-01
      0.2366154580D+01  0.3029741114D+00
      0.8117242500D+00  0.7264544274D+00
 P   1 1.00       0.000000000000
      0.3122888200D+00  0.1000000000D+01
 P   1 1.00       0.000000000000
      0.1140026600D+00  0.1000000000D+01
 D   1 1.00       0.000000000000
      0.1154049000D+01  0.1000000000D+01
 D   1 1.00       0.000000000000
      0.3511286000D+00  0.1000000000D+01
 F   1 1.00       0.000000000000
      0.8193120000D+00  0.1000000000D+01
 ****
     11 0
 S   5 1.00       0.000000000000
      0.7615059991D+04  0.1778400113D-02
      0.1145086846D+04  0.1366800087D-01
      0.2619195243D+03  0.6929080440D-01
      0.7466834196D+02  0.2631529167D+00
      0.2440551202D+02  0.7344482466D+00
 S   2 1.00       0.000000000000
      0.8686790130D+01  0.5885314354D+00
      0.3236576230D+01  0.4536170273D+00
 S   1 1.00       0.000000000000
      0.1301799990D+01  0.1000000000D+01
 S   1 1.00       0.000000000000
      0.5276887300D+00  0.1000000000D+01
 S   1 1.00       0.000000000000
      0.1569453400D+00  0.1000000000D+01
 P   4 1.00       0.000000000000
      0.3450767936D+02  0.1140380043D-01
      0.7913044410D+01  0.7659630289D-01
      0.2366154580D+01  0.3029741114D+00
      0.8117242500D+00  0.7264544274D+00
 P   1 1.00       0.000000000000
      0.3122888200D+00  0.1000000000D+01
 P   1 1.00       0.000000000000
      0.1140026600D+00  0.1000000000D+01
 D   1 1.00       0.000000000000
      0.1154049000D+01  0.1000000000D+01
 D   1 1.00       0.000000000000
      0.3511286000D+00  0.1000000000D+01
 F   1 1.00       0.000000000000
      0.8193120000D+00  0.1000000000D+01
 ****
     12 0
 S   5 1.00       0.000000000000
      0.7615059991D+04  0.1778400113D-02
      0.1145086846D+04  0.1366800087D-01
      0.2619195243D+03  0.6929080440D-01
      0.7466834196D+02  0.2631529167D+00
      0.2440551202D+02  0.7344482466D+00
 S   2 1.00       0.000000000000
      0.8686790130D+01  0.5885314354D+00
      0.3236576230D+01  0.4536170273D+00
 S   1 1.00       0.000000000000
      0.1301799990D+01  0.1000000000D+01
 S   1 1.00       0.000000000000
      0.5276887300D+00  0.1000000000D+01
 S   1 1.00       0.000000000000
      0.1569453400D+00  0.1000000000D+01
 P   4 1.00       0.000000000000
      0.3450767936D+02  0.1140380043D-01
      0.7913044410D+01  0.7659630289D-01
      0.2366154580D+01  0.3029741114D+00
      0.8117242500D+00  0.7264544274D+00
 P   1 1.00       0.000000000000
      0.3122888200D+00  0.1000000000D+01
 P   1 1.00       0.000000000000
      0.1140026600D+00  0.1000000000D+01
 D   1 1.00       0.000000000000
      0.1154049000D+01  0.1000000000D+01
 D   1 1.00       0.000000000000
      0.3511286000D+00  0.1000000000D+01
 F   1 1.00       0.000000000000
      0.8193120000D+00  0.1000000000D+01
 ****
     13 0
 S   5 1.00       0.000000000000
      0.7615059991D+04  0.1778400113D-02
      0.1145086846D+04  0.1366800087D-01
      0.2619195243D+03  0.6929080440D-01
      0.7466834196D+02  0.2631529167D+00
      0.2440551202D+02  0.7344482466D+00
 S   2 1.00       0.000000000000
      0.8686790130D+01  0.5885314354D+00
      0.3236576230D+01  0.4536170273D+00
 S   1 1.00       0.000000000000
      0.1301799990D+01  0.1000000000D+01
 S   1 1.00       0.000000000000
      0.5276887300D+00  0.1000000000D+01
 S   1 1.00       0.000000000000
      0.1569453400D+00  0.1000000000D+01
 P   4 1.00       0.000000000000
      0.3450767936D+02  0.1140380043D-01
      0.7913044410D+01  0.7659630289D-01
      0.2366154580D+01  0.3029741114D+00
      0.8117242500D+00  0.7264544274D+00
 P   1 1.00       0.000000000000
      0.3122888200D+00  0.1000000000D+01
 P   1 1.00       0.000000000000
      0.1140026600D+00  0.1000000000D+01
 D   1 1.00       0.000000000000
      0.1154049000D+01  0.1000000000D+01
 D   1 1.00       0.000000000000
      0.3511286000D+00  0.1000000000D+01
 F   1 1.00       0.000000000000
      0.8193120000D+00  0.1000000000D+01
 ****
     14 0
 S   5 1.00       0.000000000000
      0.7615059991D+04  0.1778400113D-02
      0.1145086846D+04  0.1366800087D-01
      0.2619195243D+03  0.6929080440D-01
      0.7466834196D+02  0.2631529167D+00
      0.2440551202D+02  0.7344482466D+00
 S   2 1.00       0.000000000000
      0.8686790130D+01  0.5885314354D+00
      0.3236576230D+01  0.4536170273D+00
 S   1 1.00       0.000000000000
      0.1301799990D+01  0.1000000000D+01
 S   1 1.00       0.000000000000
      0.5276887300D+00  0.1000000000D+01
 S   1 1.00       0.000000000000
      0.1569453400D+00  0.1000000000D+01
 P   4 1.00       0.000000000000
      0.3450767936D+02  0.1140380043D-01
      0.7913044410D+01  0.7659630289D-01
      0.2366154580D+01  0.3029741114D+00
      0.8117242500D+00  0.7264544274D+00
 P   1 1.00       0.000000000000
      0.3122888200D+00  0.1000000000D+01
 P   1 1.00       0.000000000000
      0.1140026600D+00  0.1000000000D+01
 D   1 1.00       0.000000000000
      0.1154049000D+01  0.1000000000D+01
 D   1 1.00       0.000000000000
      0.3511286000D+00  0.1000000000D+01
 F   1 1.00       0.000000000000
      0.8193120000D+00  0.1000000000D+01
 ****
     15 0
 S   5 1.00       0.000000000000
      0.7615059991D+04  0.1778400113D-02
      0.1145086846D+04  0.1366800087D-01
      0.2619195243D+03  0.6929080440D-01
      0.7466834196D+02  0.2631529167D+00
      0.2440551202D+02  0.7344482466D+00
 S   2 1.00       0.000000000000
      0.8686790130D+01  0.5885314354D+00
      0.3236576230D+01  0.4536170273D+00
 S   1 1.00       0.000000000000
      0.1301799990D+01  0.1000000000D+01
 S   1 1.00       0.000000000000
      0.5276887300D+00  0.1000000000D+01
 S   1 1.00       0.000000000000
      0.1569453400D+00  0.1000000000D+01
 P   4 1.00       0.000000000000
      0.3450767936D+02  0.1140380043D-01
      0.7913044410D+01  0.7659630289D-01
      0.2366154580D+01  0.3029741114D+00
      0.8117242500D+00  0.7264544274D+00
 P   1 1.00       0.000000000000
      0.3122888200D+00  0.1000000000D+01
 P   1 1.00       0.000000000000
      0.1140026600D+00  0.1000000000D+01
 D   1 1.00       0.000000000000
      0.1154049000D+01  0.1000000000D+01
 D   1 1.00       0.000000000000
      0.3511286000D+00  0.1000000000D+01
 F   1 1.00       0.000000000000
      0.8193120000D+00  0.1000000000D+01
 ****
     16 0
 S   5 1.00       0.000000000000
      0.7615059991D+04  0.1778400113D-02
      0.1145086846D+04  0.1366800087D-01
      0.2619195243D+03  0.6929080440D-01
      0.7466834196D+02  0.2631529167D+00
      0.2440551202D+02  0.7344482466D+00
 S   2 1.00       0.000000000000
      0.8686790130D+01  0.5885314354D+00
      0.3236576230D+01  0.4536170273D+00
 S   1 1.00       0.000000000000
      0.1301799990D+01  0.1000000000D+01
 S   1 1.00       0.000000000000
      0.5276887300D+00  0.1000000000D+01
 S   1 1.00       0.000000000000
      0.1569453400D+00  0.1000000000D+01
 P   4 1.00       0.000000000000
      0.3450767936D+02  0.1140380043D-01
      0.7913044410D+01  0.7659630289D-01
      0.2366154580D+01  0.3029741114D+00
      0.8117242500D+00  0.7264544274D+00
 P   1 1.00       0.000000000000
      0.3122888200D+00  0.1000000000D+01
 P   1 1.00       0.000000000000
      0.1140026600D+00  0.1000000000D+01
 D   1 1.00       0.000000000000
      0.1154049000D+01  0.1000000000D+01
 D   1 1.00       0.000000000000
      0.3511286000D+00  0.1000000000D+01
 F   1 1.00       0.000000000000
      0.8193120000D+00  0.1000000000D+01
 ****
     17 0
 S   5 1.00       0.000000000000
      0.7615059991D+04  0.1778400113D-02
      0.1145086846D+04  0.1366800087D-01
      0.2619195243D+03  0.6929080440D-01
      0.7466834196D+02  0.2631529167D+00
      0.2440551202D+02  0.7344482466D+00
 S   2 1.00       0.000000000000
      0.8686790130D+01  0.5885314354D+00
      0.3236576230D+01  0.4536170273D+00
 S   1 1.00       0.000000000000
      0.1301799990D+01  0.1000000000D+01
 S   1 1.00       0.000000000000
      0.5276887300D+00  0.1000000000D+01
 S   1 1.00       0.000000000000
      0.1569453400D+00  0.1000000000D+01
 P   4 1.00       0.000000000000
      0.3450767936D+02  0.1140380043D-01
      0.7913044410D+01  0.7659630289D-01
      0.2366154580D+01  0.3029741114D+00
      0.8117242500D+00  0.7264544274D+00
 P   1 1.00       0.000000000000
      0.3122888200D+00  0.1000000000D+01
 P   1 1.00       0.000000000000
      0.1140026600D+00  0.1000000000D+01
 D   1 1.00       0.000000000000
      0.1154049000D+01  0.1000000000D+01
 D   1 1.00       0.000000000000
      0.3511286000D+00  0.1000000000D+01
 F   1 1.00       0.000000000000
      0.8193120000D+00  0.1000000000D+01
 ****
     18 0
 S   5 1.00       0.000000000000
      0.7615059991D+04  0.1778400113D-02
      0.1145086846D+04  0.1366800087D-01
      0.2619195243D+03  0.6929080440D-01
      0.7466834196D+02  0.2631529167D+00
      0.2440551202D+02  0.7344482466D+00
 S   2 1.00       0.000000000000
      0.8686790130D+01  0.5885314354D+00
      0.3236576230D+01  0.4536170273D+00
 S   1 1.00       0.000000000000
      0.1301799990D+01  0.1000000000D+01
 S   1 1.00       0.000000000000
      0.5276887300D+00  0.1000000000D+01
 S   1 1.00       0.000000000000
      0.1569453400D+00  0.1000000000D+01
 P   4 1.00       0.000000000000
      0.3450767936D+02  0.1140380043D-01
      0.7913044410D+01  0.7659630289D-01
      0.2366154580D+01  0.3029741114D+00
      0.8117242500D+00  0.7264544274D+00
 P   1 1.00       0.000000000000
      0.3122888200D+00  0.1000000000D+01
 P   1 1.00       0.000000000000
      0.1140026600D+00  0.1000000000D+01
 D   1 1.00       0.000000000000
      0.1154049000D+01  0.1000000000D+01
 D   1 1.00       0.000000000000
      0.3511286000D+00  0.1000000000D+01
 F   1 1.00       0.000000000000
      0.8193120000D+00  0.1000000000D+01
 ****
     19 0
 S   3 1.00       0.000000000000
      0.3487758369D+02  0.2512544294D-01
      0.5233972810D+01  0.1886803606D+00
      0.1185033420D+01  0.8538944612D+00
 S   1 1.00       0.000000000000
      0.3283394300D+00  0.1000000000D+01
 S   1 1.00       0.000000000000
      0.1103191800D+00  0.1000000000D+01
 P   1 1.00       0.000000000000
      0.7188440000D+00  0.1000000000D+01
 P   1 1.00       0.000000000000
      0.3500000000D+00  0.1000000000D+01
 D   1 1.00       0.000000000000
      0.1075060000D+01  0.1000000000D+01
 ****
     20 0
 S   5 1.00       0.000000000000
      0.7615059991D+04  0.1778400113D-02
      0.1145086846D+04  0.1366800087D-01
      0.2619195243D+03  0.6929080440D-01
      0.7466834196D+02  0.2631529167D+00
      0.2440551202D+02  0.7344482466D+00
 S   2 1.00       0.000000000000
      0.8686790130D+01  0.5885314354D+00
      0.3236576230D+01  0.4536170273D+00
 S   1 1.00       0.000000000000
      0.1301799990D+01  0.1000000000D+01
 S   1 1.00       0.000000000000
      0.5276887300D+00  0.1000000000D+01
 S   1 1.00       0.000000000000
      0.1569453400D+00  0.1000000000D+01
 P   4 1.00       0.000000000000
      0.3450767936D+02  0.1140380043D-01
      0.7913044410D+01  0.7659630289D-01
      0.2366154580D+01  0.3029741114D+00
      0.8117242500D+00  0.7264544274D+00
 P   1 1.00       0.000000000000
      0.3122888200D+00  0.1000000000D+01
 P   1 1.00       0.000000000000
      0.1140026600D+00  0.1000000000D+01
 D   1 1.00       0.000000000000
      0.1154049000D+01  0.1000000000D+01
 D   1 1.00       0.000000000000
      0.3511286000D+00  0.1000000000D+01
 F   1 1.00       0.000000000000
      0.8193120000D+00  0.1000000000D+01
 ****
     21 0
 S   5 1.00       0.000000000000
      0.7615059991D+04  0.1778400113D-02
      0.1145086846D+04  0.1366800087D-01
      0.2619195243D+03  0.6929080440D-01
      0.7466834196D+02  0.2631529167D+00
      0.2440551202D+02  0.7344482466D+00
 S   2 1.00       0.000000000000
      0.8686790130D+01  0.5885314354D+00
      0.3236576230D+01  0.4536170273D+00
 S   1 1.00       0.000000000000
      0.1301799990D+01  0.1000000000D+01
 S   1 1.00       0.000000000000
      0.5276887300D+00  0.1000000000D+01
 S   1 1.00       0.000000000000
      0.1569453400D+00  0.1000000000D+01
 P   4 1.00       0.000000000000
      0.3450767936D+02  0.1140380043D-01
      0.7913044410D+01  0.7659630289D-01
      0.2366154580D+01  0.3029741114D+00
      0.8117242500D+00  0.7264544274D+00
 P   1 1.00       0.000000000000
      0.3122888200D+00  0.1000000000D+01
 P   1 1.00       0.000000000000
      0.1140026600D+00  0.1000000000D+01
 D   1 1.00       0.000000000000
      0.1154049000D+01  0.1000000000D+01
 D   1 1.00       0.000000000000
      0.3511286000D+00  0.1000000000D+01
 F   1 1.00       0.000000000000
      0.8193120000D+00  0.1000000000D+01
 ****
     22 0
 S   5 1.00       0.000000000000
      0.1673604332D+05  0.1803299955D-02
      0.2517472669D+04  0.1385399965D-01
      0.5759521789D+03  0.7021019823D-01
      0.1645773570D+03  0.2653446933D+00
      0.5427385737D+02  0.7310816816D+00
 S   2 1.00       0.000000000000
      0.1967931067D+02  0.5966610207D+00
      0.7495430720D+01  0.4435267154D+00
 S   1 1.00       0.000000000000
      0.1885680250D+01  0.1000000000D+01
 S   1 1.00       0.000000000000
      0.9798678900D+00  0.1000000000D+01
 S   1 1.00       0.000000000000
      0.3238531700D+00  0.1000000000D+01
 P   4 1.00       0.000000000000
      0.8049602312D+02  0.1226939963D-01
      0.1865399340D+02  0.8541969739D-01
      0.5702737430D+01  0.3260430900D+00
      0.1955477550D+01  0.7002174786D+00
 P   1 1.00       0.000000000000
      0.6829535500D+00  0.1000000000D+01
 P   1 1.00       0.000000000000
      0.2204462600D+00  0.1000000000D+01
 D   1 1.00       0.000000000000
      0.3181469990D+01  0.1000000000D+01
 D   1 1.00       0.000000000000
      0.8903242000D+00  0.1000000000D+01
 F   1 1.00       0.000000000000
      0.1993559990D+01  0.1000000000D+01
 ****
     23 0
 S   5 1.00       0.000000000000
      0.1673604332D+05  0.1803299955D-02
      0.2517472669D+04  0.1385399965D-01
      0.5759521789D+03  0.7021019823D-01
      0.1645773570D+03  0.2653446933D+00
      0.5427385737D+02  0.7310816816D+00
 S   2 1.00       0.000000000000
      0.1967931067D+02  0.5966610207D+00
      0.7495430720D+01  0.4435267154D+00
 S   1 1.00       0.000000000000
      0.1885680250D+01  0.1000000000D+01
 S   1 1.00       0.000000000000
      0.9798678900D+00  0.1000000000D+01
 S   1 1.00       0.000000000000
      0.3238531700D+00  0.1000000000D+01
 P   4 1.00       0.000000000000
      0.8049602312D+02  0.1226939963D-01
      0.1865399340D+02  0.8541969739D-01
      0.5702737430D+01  0.3260430900D+00
      0.1955477550D+01  0.7002174786D+00
 P   1 1.00       0.000000000000
      0.6829535500D+00  0.1000000000D+01
 P   1 1.00       0.000000000000
      0.2204462600D+00  0.1000000000D+01
 D   1 1.00       0.000000000000
      0.3181469990D+01  0.1000000000D+01
 D   1 1.00       0.000000000000
      0.8903242000D+00  0.1000000000D+01
 F   1 1.00       0.000000000000
      0.1993559990D+01  0.1000000000D+01
 ****
     24 0
 S   3 1.00       0.000000000000
      0.3487758369D+02  0.2512544294D-01
      0.5233972810D+01  0.1886803606D+00
      0.1185033420D+01  0.8538944612D+00
 S   1 1.00       0.000000000000
      0.3283394300D+00  0.1000000000D+01
 S   1 1.00       0.000000000000
      0.1103191800D+00  0.1000000000D+01
 P   1 1.00       0.000000000000
      0.7188440000D+00  0.1000000000D+01
 P   1 1.00       0.000000000000
      0.3500000000D+00  0.1000000000D+01
 D   1 1.00       0.000000000000
      0.1075060000D+01  0.1000000000D+01
 ****
     25 0
 S   5 1.00       0.000000000000
      0.7615059991D+04  0.1778400113D-02
      0.1145086846D+04  0.1366800087D-01
      0.2619195243D+03  0.6929080440D-01
      0.7466834196D+02  0.2631529167D+00
      0.2440551202D+02  0.7344482466D+00
 S   2 1.00       0.000000000000
      0.8686790130D+01  0.5885314354D+00
      0.3236576230D+01  0.4536170273D+00
 S   1 1.00       0.000000000000
      0.1301799990D+01  0.1000000000D+01
 S   1 1.00       0.000000000000
      0.5276887300D+00  0.1000000000D+01
 S   1 1.00       0.000000000000
      0.1569453400D+00  0.1000000000D+01
 P   4 1.00       0.000000000000
      0.3450767936D+02  0.1140380043D-01
      0.7913044410D+01  0.7659630289D-01
      0.2366154580D+01  0.3029741114D+00
      0.8117242500D+00  0.7264544274D+00
 P   1 1.00       0.000000000000
      0.3122888200D+00  0.1000000000D+01
 P   1 1.00       0.000000000000
      0.1140026600D+00  0.1000000000D+01
 D   1 1.00       0.000000000000
      0.1154049000D+01  0.1000000000D+01
 D   1 1.00       0.000000000000
      0.3511286000D+00  0.1000000000D+01
 F   1 1.00       0.000000000000
      0.8193120000D+00  0.1000000000D+01
 ****
     26 0
 S   3 1.00       0.000000000000
      0.3487758369D+02  0.2512544294D-01
      0.5233972810D+01  0.1886803606D+00
      0.1185033420D+01  0.8538944612D+00
 S   1 1.00       0.000000000000
      0.3283394300D+00  0.1000000000D+01
 S   1 1.00       0.000000000000
      0.1103191800D+00  0.1000000000D+01
 P   1 1.00       0.000000000000
      0.7188440000D+00  0.1000000000D+01
 P   1 1.00       0.000000000000
      0.3500000000D+00  0.1000000000D+01
 D   1 1.00       0.000000000000
      0.1075060000D+01  0.1000000000D+01
 ****
     27 0
 S   3 1.00       0.000000000000
      0.3487758369D+02  0.2512544294D-01
      0.5233972810D+01  0.1886803606D+00
      0.1185033420D+01  0.8538944612D+00
 S   1 1.00       0.000000000000
      0.3283394300D+00  0.1000000000D+01
 S   1 1.00       0.000000000000
      0.1103191800D+00  0.1000000000D+01
 P   1 1.00       0.000000000000
      0.7188440000D+00  0.1000000000D+01
 P   1 1.00       0.000000000000
      0.3500000000D+00  0.1000000000D+01
 D   1 1.00       0.000000000000
      0.1075060000D+01  0.1000000000D+01
 ****
     28 0
 S   5 1.00       0.000000000000
      0.7615059991D+04  0.1778400113D-02
      0.1145086846D+04  0.1366800087D-01
      0.2619195243D+03  0.6929080440D-01
      0.7466834196D+02  0.2631529167D+00
      0.2440551202D+02  0.7344482466D+00
 S   2 1.00       0.000000000000
      0.8686790130D+01  0.5885314354D+00
      0.3236576230D+01  0.4536170273D+00
 S   1 1.00       0.000000000000
      0.1301799990D+01  0.1000000000D+01
 S   1 1.00       0.000000000000
      0.5276887300D+00  0.1000000000D+01
 S   1 1.00       0.000000000000
      0.1569453400D+00  0.1000000000D+01
 P   4 1.00       0.000000000000
      0.3450767936D+02  0.1140380043D-01
      0.7913044410D+01  0.7659630289D-01
      0.2366154580D+01  0.3029741114D+00
      0.8117242500D+00  0.7264544274D+00
 P   1 1.00       0.000000000000
      0.3122888200D+00  0.1000000000D+01
 P   1 1.00       0.000000000000
      0.1140026600D+00  0.1000000000D+01
 D   1 1.00       0.000000000000
      0.1154049000D+01  0.1000000000D+01
 D   1 1.00       0.000000000000
      0.3511286000D+00  0.1000000000D+01
 F   1 1.00       0.000000000000
      0.8193120000D+00  0.1000000000D+01
 ****
     29 0
 S   3 1.00       0.000000000000
      0.3487758369D+02  0.2512544294D-01
      0.5233972810D+01  0.1886803606D+00
      0.1185033420D+01  0.8538944612D+00
 S   1 1.00       0.000000000000
      0.3283394300D+00  0.1000000000D+01
 S   1 1.00       0.000000000000
      0.1103191800D+00  0.1000000000D+01
 P   1 1.00       0.000000000000
      0.7188440000D+00  0.1000000000D+01
 P   1 1.00       0.000000000000
      0.3500000000D+00  0.1000000000D+01
 D   1 1.00       0.000000000000
      0.1075060000D+01  0.1000000000D+01
 ****
     30 0
 S   3 1.00       0.000000000000
      0.3487758369D+02  0.2512544294D-01
      0.5233972810D+01  0.1886803606D+00
      0.1185033420D+01  0.8538944612D+00
 S   1 1.00       0.000000000000
      0.3283394300D+00  0.1000000000D+01
 S   1 1.00       0.000000000000
      0.1103191800D+00  0.1000000000D+01
 P   1 1.00       0.000000000000
      0.7188440000D+00  0.1000000000D+01
 P   1 1.00       0.000000000000
      0.3500000000D+00  0.1000000000D+01
 D   1 1.00       0.000000000000
      0.1075060000D+01  0.1000000000D+01
 ****
     31 0
 S   5 1.00       0.000000000000
      0.7615059991D+04  0.1778400113D-02
      0.1145086846D+04  0.1366800087D-01
      0.2619195243D+03  0.6929080440D-01
      0.7466834196D+02  0.2631529167D+00
      0.2440551202D+02  0.7344482466D+00
 S   2 1.00       0.000000000000
      0.8686790130D+01  0.5885314354D+00
      0.3236576230D+01  0.4536170273D+00
 S   1 1.00       0.000000000000
      0.1301799990D+01  0.1000000000D+01
 S   1 1.00       0.000000000000
      0.5276887300D+00  0.1000000000D+01
 S   1 1.00       0.000000000000
      0.1569453400D+00  0.1000000000D+01
 P   4 1.00       0.000000000000
      0.3450767936D+02  0.1140380043D-01
      0.7913044410D+01  0.7659630289D-01
      0.2366154580D+01  0.3029741114D+00
      0.8117242500D+00  0.7264544274D+00
 P   1 1.00       0.000000000000
      0.3122888200D+00  0.1000000000D+01
 P   1 1.00       0.000000000000
      0.1140026600D+00  0.1000000000D+01
 D   1 1.00       0.000000000000
      0.1154049000D+01  0.1000000000D+01
 D   1 1.00       0.000000000000
      0.3511286000D+00  0.1000000000D+01
 F   1 1.00       0.000000000000
      0.8193120000D+00  0.1000000000D+01
 ****
     32 0
 S   5 1.00       0.000000000000
      0.7615059991D+04  0.1778400113D-02
      0.1145086846D+04  0.1366800087D-01
      0.2619195243D+03  0.6929080440D-01
      0.7466834196D+02  0.2631529167D+00
      0.2440551202D+02  0.7344482466D+00
 S   2 1.00       0.000000000000
      0.8686790130D+01  0.5885314354D+00
      0.3236576230D+01  0.4536170273D+00
 S   1 1.00       0.000000000000
      0.1301799990D+01  0.1000000000D+01
 S   1 1.00       0.000000000000
      0.5276887300D+00  0.1000000000D+01
 S   1 1.00       0.000000000000
      0.1569453400D+00  0.1000000000D+01
 P   4 1.00       0.000000000000
      0.3450767936D+02  0.1140380043D-01
      0.7913044410D+01  0.7659630289D-01
      0.2366154580D+01  0.3029741114D+00
      0.8117242500D+00  0.7264544274D+00
 P   1 1.00       0.000000000000
      0.3122888200D+00  0.1000000000D+01
 P   1 1.00       0.000000000000
      0.1140026600D+00  0.1000000000D+01
 D   1 1.00       0.000000000000
      0.1154049000D+01  0.1000000000D+01
 D   1 1.00       0.000000000000
      0.3511286000D+00  0.1000000000D+01
 F   1 1.00       0.000000000000
      0.8193120000D+00  0.1000000000D+01
 ****
     33 0
 S   5 1.00       0.000000000000
      0.7615059991D+04  0.1778400113D-02
      0.1145086846D+04  0.1366800087D-01
      0.2619195243D+03  0.6929080440D-01
      0.7466834196D+02  0.2631529167D+00
      0.2440551202D+02  0.7344482466D+00
 S   2 1.00       0.000000000000
      0.8686790130D+01  0.5885314354D+00
      0.3236576230D+01  0.4536170273D+00
 S   1 1.00       0.000000000000
      0.1301799990D+01  0.1000000000D+01
 S   1 1.00       0.000000000000
      0.5276887300D+00  0.1000000000D+01
 S   1 1.00       0.000000000000
      0.1569453400D+00  0.1000000000D+01
 P   4 1.00       0.000000000000
      0.3450767936D+02  0.1140380043D-01
      0.7913044410D+01  0.7659630289D-01
      0.2366154580D+01  0.3029741114D+00
      0.8117242500D+00  0.7264544274D+00
 P   1 1.00       0.000000000000
      0.3122888200D+00  0.1000000000D+01
 P   1 1.00       0.000000000000
      0.1140026600D+00  0.1000000000D+01
 D   1 1.00       0.000000000000
      0.1154049000D+01  0.1000000000D+01
 D   1 1.00       0.000000000000
      0.3511286000D+00  0.1000000000D+01
 F   1 1.00       0.000000000000
      0.8193120000D+00  0.1000000000D+01
 ****
     34 0
 S   5 1.00       0.000000000000
      0.7615059991D+04  0.1778400113D-02
      0.1145086846D+04  0.1366800087D-01
      0.2619195243D+03  0.6929080440D-01
      0.7466834196D+02  0.2631529167D+00
      0.2440551202D+02  0.7344482466D+00
 S   2 1.00       0.000000000000
      0.8686790130D+01  0.5885314354D+00
      0.3236576230D+01  0.4536170273D+00
 S   1 1.00       0.000000000000
      0.1301799990D+01  0.1000000000D+01
 S   1 1.00       0.000000000000
      0.5276887300D+00  0.1000000000D+01
 S   1 1.00       0.000000000000
      0.1569453400D+00  0.1000000000D+01
 P   4 1.00       0.000000000000
      0.3450767936D+02  0.1140380043D-01
      0.7913044410D+01  0.7659630289D-01
      0.2366154580D+01  0.3029741114D+00
      0.8117242500D+00  0.7264544274D+00
 P   1 1.00       0.000000000000
      0.3122888200D+00  0.1000000000D+01
 P   1 1.00       0.000000000000
      0.1140026600D+00  0.1000000000D+01
 D   1 1.00       0.000000000000
      0.1154049000D+01  0.1000000000D+01
 D   1 1.00       0.000000000000
      0.3511286000D+00  0.1000000000D+01
 F   1 1.00       0.000000000000
      0.8193120000D+00  0.1000000000D+01
 ****
     35 0
 S   5 1.00       0.000000000000
      0.7615059991D+04  0.1778400113D-02
      0.1145086846D+04  0.1366800087D-01
      0.2619195243D+03  0.6929080440D-01
      0.7466834196D+02  0.2631529167D+00
      0.2440551202D+02  0.7344482466D+00
 S   2 1.00       0.000000000000
      0.8686790130D+01  0.5885314354D+00
      0.3236576230D+01  0.4536170273D+00
 S   1 1.00       0.000000000000
      0.1301799990D+01  0.1000000000D+01
 S   1 1.00       0.000000000000
      0.5276887300D+00  0.1000000000D+01
 S   1 1.00       0.000000000000
      0.1569453400D+00  0.1000000000D+01
 P   4 1.00       0.000000000000
      0.3450767936D+02  0.1140380043D-01
      0.7913044410D+01  0.7659630289D-01
      0.2366154580D+01  0.3029741114D+00
      0.8117242500D+00  0.7264544274D+00
 P   1 1.00       0.000000000000
      0.3122888200D+00  0.1000000000D+01
 P   1 1.00       0.000000000000
      0.1140026600D+00  0.1000000000D+01
 D   1 1.00       0.000000000000
      0.1154049000D+01  0.1000000000D+01
 D   1 1.00       0.000000000000
      0.3511286000D+00  0.1000000000D+01
 F   1 1.00       0.000000000000
      0.8193120000D+00  0.1000000000D+01
 ****
     36 0
 S   5 1.00       0.000000000000
      0.7615059991D+04  0.1778400113D-02
      0.1145086846D+04  0.1366800087D-01
      0.2619195243D+03  0.6929080440D-01
      0.7466834196D+02  0.2631529167D+00
      0.2440551202D+02  0.7344482466D+00
 S   2 1.00       0.000000000000
      0.8686790130D+01  0.5885314354D+00
      0.3236576230D+01  0.4536170273D+00
 S   1 1.00       0.000000000000
      0.1301799990D+01  0.1000000000D+01
 S   1 1.00       0.000000000000
      0.5276887300D+00  0.1000000000D+01
 S   1 1.00       0.000000000000
      0.1569453400D+00  0.1000000000D+01
 P   4 1.00       0.000000000000
      0.3450767936D+02  0.1140380043D-01
      0.7913044410D+01  0.7659630289D-01
      0.2366154580D+01  0.3029741114D+00
      0.8117242500D+00  0.7264544274D+00
 P   1 1.00       0.000000000000
      0.3122888200D+00  0.1000000000D+01
 P   1 1.00       0.000000000000
      0.1140026600D+00  0.1000000000D+01
 D   1 1.00       0.000000000000
      0.1154049000D+01  0.1000000000D+01
 D   1 1.00       0.000000000000
      0.3511286000D+00  0.1000000000D+01
 F   1 1.00       0.000000000000
      0.8193120000D+00  0.1000000000D+01
 ****
     37 0
 S   5 1.00       0.000000000000
      0.7615059991D+04  0.1778400113D-02
      0.1145086846D+04  0.1366800087D-01
      0.2619195243D+03  0.6929080440D-01
      0.7466834196D+02  0.2631529167D+00
      0.2440551202D+02  0.7344482466D+00
 S   2 1.00       0.000000000000
      0.8686790130D+01  0.5885314354D+00
      0.3236576230D+01  0.4536170273D+00
 S   1 1.00       0.000000000000
      0.1301799990D+01  0.1000000000D+01
 S   1 1.00       0.000000000000
      0.5276887300D+00  0.1000000000D+01
 S   1 1.00       0.000000000000
      0.1569453400D+00  0.1000000000D+01
 P   4 1.00       0.000000000000
      0.3450767936D+02  0.1140380043D-01
      0.7913044410D+01  0.7659630289D-01
      0.2366154580D+01  0.3029741114D+00
      0.8117242500D+00  0.7264544274D+00
 P   1 1.00       0.000000000000
      0.3122888200D+00  0.1000000000D+01
 P   1 1.00       0.000000000000
      0.1140026600D+00  0.1000000000D+01
 D   1 1.00       0.000000000000
      0.1154049000D+01  0.1000000000D+01
 D   1 1.00       0.000000000000
      0.3511286000D+00  0.1000000000D+01
 F   1 1.00       0.000000000000
      0.8193120000D+00  0.1000000000D+01
 ****
     38 0
 S   5 1.00       0.000000000000
      0.1025965669D+05  0.1793100019D-02
      0.1542368646D+04  0.1378330014D-01
      0.3529223928D+03  0.6980180073D-01
      0.1008063270D+03  0.2641269028D+00
      0.3310725394D+02  0.7328001076D+00
 S   2 1.00       0.000000000000
      0.1188253928D+02  0.5913762818D+00
      0.4467908290D+01  0.4499683862D+00
 S   1 1.00       0.000000000000
      0.1196764330D+01  0.1000000000D+01
 S   1 1.00       0.000000000000
      0.6391599200D+00  0.1000000000D+01
 S   1 1.00       0.000000000000
      0.1974423200D+00  0.1000000000D+01
 P   4 1.00       0.000000000000
      0.4911376009D+02  0.1148570006D-01
      0.1132541037D+02  0.7863570042D-01
      0.3422496860D+01  0.3087282017D+00
      0.1178515700D+01  0.7194875039D+00
 P   1 1.00       0.000000000000
      0.4344911400D+00  0.1000000000D+01
 P   1 1.00       0.000000000000
      0.1519374700D+00  0.1000000000D+01
 D   1 1.00       0.000000000000
      0.1729177000D+01  0.1000000000D+01
 D   1 1.00       0.000000000000
      0.5083460000D+00  0.1000000000D+01
 F   1 1.00       0.000000000000
      0.1163580400D+01  0.1000000000D+01
 ****
     39 0
 S   3 1.00       0.000000000000
      0.3487758369D+02  0.2512544294D-01
      0.5233972810D+01  0.1886803606D+00
      0.1185033420D+01  0.8538944612D+00
 S   1 1.00       0.000000000000
      0.3283394300D+00  0.1000000000D+01
 S   1 1.00       0.000000000000
      0.1103191800D+00  0.1000000000D+01
 P   1 1.00       0.000000000000
      0.7188440000D+00  0.1000000000D+01
 P   1 1.00       0.000000000000
      0.3500000000D+00  0.1000000000D+01
 D   1 1.00       0.000000000000
      0.1075060000D+01  0.1000000000D+01
 ****
     40 0
 S   5 1.00       0.000000000000
      0.1673604332D+05  0.1803299955D-02
      0.2517472669D+04  0.1385399965D-01
      0.5759521789D+03  0.7021019823D-01
      0.1645773570D+03  0.2653446933D+00
      0.5427385737D+02  0.7310816816D+00
 S   2 1.00       0.000000000000
      0.1967931067D+02  0.5966610207D+00
      0.7495430720D+01  0.4435267154D+00
 S   1 1.00       0.000000000000
      0.1885680250D+01  0.1000000000D+01
 S   1 1.00       0.000000000000
      0.9798678900D+00  0.1000000000D+01
 S   1 1.00       0.000000000000
      0.3238531700D+00  0.1000000000D+01
 P   4 1.00       0.000000000000
      0.8049602312D+02  0.1226939963D-01
      0.1865399340D+02  0.8541969739D-01
      0.5702737430D+01  0.3260430900D+00
      0.1955477550D+01  0.7002174786D+00
 P   1 1.00       0.000000000000
      0.6829535500D+00  0.1000000000D+01
 P   1 1.00       0.000000000000
      0.2204462600D+00  0.1000000000D+01
 D   1 1.00       0.000000000000
      0.3181469990D+01  0.1000000000D+01
 D   1 1.00       0.000000000000
      0.8903242000D+00  0.1000000000D+01
 F   1 1.00       0.000000000000
      0.1993559990D+01  0.1000000000D+01
 ****
     41 0
 S   5 1.00       0.000000000000
      0.1673604332D+05  0.1803299955D-02
      0.2517472669D+04  0.1385399965D-01
      0.5759521789D+03  0.7021019823D-01
      0.1645773570D+03  0.2653446933D+00
      0.5427385737D+02  0.7310816816D+00
 S   2 1.00       0.000000000000
      0.1967931067D+02  0.5966610207D+00
      0.7495430720D+01  0.4435267154D+00
 S   1 1.00       0.000000000000
      0.1885680250D+01  0.1000000000D+01
 S   1 1.00       0.000000000000
      0.9798678900D+00  0.1000000000D+01
 S   1 1.00       0.000000000000
      0.3238531700D+00  0.1000000000D+01
 P   4 1.00       0.000000000000
      0.8049602312D+02  0.1226939963D-01
      0.1865399340D+02  0.8541969739D-01
      0.5702737430D+01  0.3260430900D+00
      0.1955477550D+01  0.7002174786D+00
 P   1 1.00       0.000000000000
      0.6829535500D+00  0.1000000000D+01
 P   1 1.00       0.000000000000
      0.2204462600D+00  0.1000000000D+01
 D   1 1.00       0.000000000000
      0.3181469990D+01  0.1000000000D+01
 D   1 1.00       0.000000000000
      0.8903242000D+00  0.1000000000D+01
 F   1 1.00       0.000000000000
      0.1993559990D+01  0.1000000000D+01
 ****
     42 0
 S   5 1.00       0.000000000000
      0.1673604332D+05  0.1803299955D-02
      0.2517472669D+04  0.1385399965D-01
      0.5759521789D+03  0.7021019823D-01
      0.1645773570D+03  0.2653446933D+00
      0.5427385737D+02  0.7310816816D+00
 S   2 1.00       0.000000000000
      0.1967931067D+02  0.5966610207D+00
      0.7495430720D+01  0.4435267154D+00
 S   1 1.00       0.000000000000
      0.1885680250D+01  0.1000000000D+01
 S   1 1.00       0.000000000000
      0.9798678900D+00  0.1000000000D+01
 S   1 1.00       0.000000000000
      0.3238531700D+00  0.1000000000D+01
 P   4 1.00       0.000000000000
      0.8049602312D+02  0.1226939963D-01
      0.1865399340D+02  0.8541969739D-01
      0.5702737430D+01  0.3260430900D+00
      0.1955477550D+01  0.7002174786D+00
 P   1 1.00       0.000000000000
      0.6829535500D+00  0.1000000000D+01
 P   1 1.00       0.000000000000
      0.2204462600D+00  0.1000000000D+01
 D   1 1.00       0.000000000000
      0.3181469990D+01  0.1000000000D+01
 D   1 1.00       0.000000000000
      0.8903242000D+00  0.1000000000D+01
 F   1 1.00       0.000000000000
      0.1993559990D+01  0.1000000000D+01
 ****
     43 0
 S   5 1.00       0.000000000000
      0.1673604332D+05  0.1803299955D-02
      0.2517472669D+04  0.1385399965D-01
      0.5759521789D+03  0.7021019823D-01
      0.1645773570D+03  0.2653446933D+00
      0.5427385737D+02  0.7310816816D+00
 S   2 1.00       0.000000000000
      0.1967931067D+02  0.5966610207D+00
      0.7495430720D+01  0.4435267154D+00
 S   1 1.00       0.000000000000
      0.1885680250D+01  0.1000000000D+01
 S   1 1.00       0.000000000000
      0.9798678900D+00  0.1000000000D+01
 S   1 1.00       0.000000000000
      0.3238531700D+00  0.1000000000D+01
 P   4 1.00       0.000000000000
      0.8049602312D+02  0.1226939963D-01
      0.1865399340D+02  0.8541969739D-01
      0.5702737430D+01  0.3260430900D+00
      0.1955477550D+01  0.7002174786D+00
 P   1 1.00       0.000000000000
      0.6829535500D+00  0.1000000000D+01
 P   1 1.00       0.000000000000
      0.2204462600D+00  0.1000000000D+01
 D   1 1.00       0.000000000000
      0.3181469990D+01  0.1000000000D+01
 D   1 1.00       0.000000000000
      0.8903242000D+00  0.1000000000D+01
 F   1 1.00       0.000000000000
      0.1993559990D+01  0.1000000000D+01
 ****
     44 0
 S   5 1.00       0.000000000000
      0.1673604332D+05  0.1803299955D-02
      0.2517472669D+04  0.1385399965D-01
      0.5759521789D+03  0.7021019823D-01
      0.1645773570D+03  0.2653446933D+00
      0.5427385737D+02  0.7310816816D+00
 S   2 1.00       0.000000000000
      0.1967931067D+02  0.5966610207D+00
      0.7495430720D+01  0.4435267154D+00
 S   1 1.00       0.000000000000
      0.1885680250D+01  0.1000000000D+01
 S   1 1.00       0.000000000000
      0.9798678900D+00  0.1000000000D+01
 S   1 1.00       0.000000000000
      0.3238531700D+00  0.1000000000D+01
 P   4 1.00       0.000000000000
      0.8049602312D+02  0.1226939963D-01
      0.1865399340D+02  0.8541969739D-01
      0.5702737430D+01  0.3260430900D+00
      0.1955477550D+01  0.7002174786D+00
 P   1 1.00       0.000000000000
      0.6829535500D+00  0.1000000000D+01
[...]
     17  -0.188493D+00
     18  -0.350995D+01

 ----------------------------------------------------------------------

 Electric dipole moment (input orientation):
 (Debye = 10**-18 statcoulomb cm , SI units = C m)
                  (au)            (Debye)         (10**-30 SI)
   Tot        0.154361D+01      0.392347D+01      0.130873D+02
   x          0.153377D+01      0.389845D+01      0.130038D+02
   y         -0.113597D-01     -0.288736D-01     -0.963118D-01
   z          0.173663D+00      0.441407D+00      0.147238D+01

 Dipole polarizability, Alpha (input orientation).
 (esu units = cm**3 , SI units = C**2 m**2 J**-1)
 Alpha(0;0):
               (au)            (10**-24 esu)      (10**-40 SI)
   iso        0.669727D+03      0.992433D+02      0.110423D+03
   aniso      0.604464D+03      0.895723D+02      0.996626D+02
   xx         0.973802D+03      0.144303D+03      0.160558D+03
   yx        -0.451036D+00     -0.668366D-01     -0.743658D-01
   yy         0.746665D+03      0.110644D+03      0.123108D+03
   zx         0.301373D+01      0.446589D+00      0.496897D+00
   zy         0.270473D+01      0.400799D+00      0.445949D+00
   zz         0.288715D+03      0.427831D+02      0.476026D+02
 Alpha(-w;w) w= 1907.0nm:
                  (au)         (10**-24 esu)      (10**-40 SI)
   iso        0.555129D+03      0.822616D+02      0.915283D+02
   aniso      0.548177D+03      0.812314D+02      0.903821D+02
   xx         0.838005D+03      0.124180D+03      0.138168D+03
   yx        -0.458882D+00     -0.679993D-01     -0.756594D-01
   yy         0.614047D+03      0.909923D+02      0.101243D+03
   zx         0.210525D+01      0.311966D+00      0.347109D+00
   zy         0.206278D+01      0.305672D+00      0.340106D+00
   zz         0.213334D+03      0.316128D+02      0.351740D+02

 First dipole hyperpolarizability, Beta (input orientation).
 ||, _|_  parallel and perpendicular components, (z) with respect to z axis,
 vector components x,y,z.  Values do not include the 1/n! factor of 1/2.
 (esu units = statvolt**-1 cm**4 , SI units = C**3 m**3 J**-2)
 Beta(0;0,0):
               (au)            (10**-30 esu)      (10**-50 SI)
   || (z)    -0.201384D+03     -0.173980D+01     -0.645711D+00
   _|_(z)    -0.671281D+02     -0.579935D+00     -0.215237D+00
   x          0.150674D+06      0.130171D+04      0.483117D+03
   y         -0.485469D+03     -0.419407D+01     -0.155659D+01
   z         -0.100692D+04     -0.869902D+01     -0.322856D+01
   ||         0.301357D+05      0.260349D+03      0.966260D+02
   xxx        0.484370D+05      0.418458D+03      0.155306D+03
   xxy       -0.152693D+03     -0.131915D+01     -0.489590D+00
   yxy        0.187702D+04      0.162160D+02      0.601842D+01
   yyy       -0.912715D+01     -0.788515D-01     -0.292649D-01
   xxz       -0.241365D+03     -0.208520D+01     -0.773902D+00
   yxz       -0.169950D+02     -0.146824D+00     -0.544921D-01
   yyz       -0.725928D+02     -0.627145D+00     -0.232759D+00
   zxz       -0.891902D+02     -0.770534D+00     -0.285976D+00
   zyz       -0.251801D-02     -0.217537D-04     -0.807365D-05
   zzz       -0.216832D+02     -0.187326D+00     -0.695242D-01
 Beta(-w;w,0) w= 1907.0nm:
                  (au)         (10**-30 esu)      (10**-50 SI)
   || (z)    -0.178567D+03     -0.154268D+01     -0.572550D+00
   _|_(z)    -0.447017D+02     -0.386188D+00     -0.143330D+00
   x          0.133618D+06      0.115435D+04      0.428426D+03
   y         -0.436425D+03     -0.377037D+01     -0.139934D+01
   z         -0.892834D+03     -0.771339D+01     -0.286275D+01
   ||         0.267243D+05      0.230877D+03      0.856877D+02
   xxx        0.425995D+05      0.368027D+03      0.136590D+03
   yxx       -0.132076D+03     -0.114104D+01     -0.423485D+00
   yyx        0.176050D+04      0.152093D+02      0.564478D+01
   zxx       -0.244639D+03     -0.211349D+01     -0.784401D+00
   zyx       -0.103720D+02     -0.896058D-01     -0.332563D-01
   zzx       -0.281078D+02     -0.242829D+00     -0.901236D-01
   xxy       -0.131182D+03     -0.113331D+01     -0.420616D+00
   yxy        0.210335D+04      0.181713D+02      0.674410D+01
   yyy       -0.135286D+02     -0.116876D+00     -0.433775D-01
   zxy       -0.104088D+02     -0.899243D-01     -0.333745D-01
   zyy       -0.605252D+02     -0.522891D+00     -0.194066D+00
   zzy       -0.204327D+00     -0.176523D-02     -0.655146D-03
   xxz       -0.209585D+03     -0.181065D+01     -0.672005D+00
   yxz       -0.100214D+02     -0.865772D-01     -0.321323D-01
   yyz       -0.511174D+02     -0.441615D+00     -0.163901D+00
   zxz       -0.600439D+02     -0.518732D+00     -0.192522D+00
   zyz       -0.150104D+00     -0.129679D-02     -0.481289D-03
   zzz       -0.726766D+01     -0.627869D-01     -0.233027D-01
 Beta(-2w;w,w) w= 1907.0nm:
                  (au)         (10**-30 esu)      (10**-50 SI)
   || (z)    -0.236162D+03     -0.204026D+01     -0.757221D+00
   _|_(z)    -0.868812D+02     -0.750586D+00     -0.278573D+00
   x          0.186724D+06      0.161315D+04      0.598706D+03
   y         -0.631593D+03     -0.545647D+01     -0.202512D+01
   z         -0.118081D+04     -0.102013D+02     -0.378610D+01
   ||         0.373458D+05      0.322639D+03      0.119744D+03
   xxx        0.587741D+05      0.507762D+03      0.188451D+03
   yxx       -0.180963D+03     -0.156338D+01     -0.580232D+00
   zxx       -0.343105D+03     -0.296416D+01     -0.110012D+01
   xyx       -0.178541D+03     -0.154246D+01     -0.572468D+00
   yyx        0.336139D+04      0.290398D+02      0.107778D+02
   zyx       -0.389421D+01     -0.336429D-01     -0.124862D-01
   xyy        0.383526D+04      0.331336D+02      0.122972D+02
   yyy       -0.310066D+02     -0.267873D+00     -0.994185D-01
   zyy       -0.633100D+02     -0.546949D+00     -0.202995D+00
   xzx       -0.324041D+03     -0.279946D+01     -0.103899D+01
   yzx       -0.423676D+01     -0.366023D-01     -0.135846D-01
   zzx       -0.468836D+02     -0.405038D+00     -0.150326D+00
   xzy       -0.470714D+01     -0.406660D-01     -0.150928D-01
   yzy       -0.578916D+02     -0.500138D+00     -0.185621D+00
   zzy       -0.188493D+00     -0.162843D-02     -0.604378D-03
   xzz       -0.620872D+02     -0.536385D+00     -0.199074D+00
   yzz       -0.150615D+00     -0.130120D-02     -0.482926D-03
   zzz       -0.350995D+01     -0.303232D-01     -0.112542D-01

 ----------------------------------------------------------------------

 Dipole orientation:
    78          0.25863086          0.00736755          1.88790836
     6         -0.08285329         -0.00135439         -1.97001194
     7          0.30334347         -3.82058096          2.56197274
     7          0.33328527          3.83822455          2.54609410
     6          0.21565442          5.62709293          0.75377918
     6          0.16743986         -5.61500741          0.77653810
     6          0.52624620          4.51360691          5.06276221
     6          0.49986977         -4.48798745          5.08036983
     6          0.63444025         -2.33203098          6.81457605
     6          0.64701323          2.36366322          6.80536098
     6          0.85236194          2.30268338          9.44861330
     6          0.58933273          7.07778260          5.72955523
     6          0.46519249          8.92593157          3.86759165
     6          0.27881123          8.19246146          1.33106658
     6          0.84071131         -2.26162215          9.45749758
     6          0.94918344          0.02285860         10.77777590
     6          0.56097554         -7.05032578          5.75507056
     6          0.42299866         -8.90429044          3.89980668
     1          0.72162069         -7.56166171          7.74068321
     6          0.21954203         -8.17846255          1.36231989
     6          0.54295610          0.01369529          5.56512747
     9          0.94260449         -4.40540992         10.80330475
     9          0.96466131          4.45121576         10.78610509
     1          0.01901663         -4.93789656         -1.16399597
     6          0.01166085        -10.13890386         -0.69205864
     1          0.47906907        -10.89845977          4.42606920
     1          0.06090830          4.94412361         -1.18428591
     6          0.19700833         10.14683316         -0.73807927
     1          0.73403284          7.59485979          7.71486680
     1          0.50656799         10.92169176          4.38868598
     6         -0.37039722         -0.01014516         -4.28923185
     6         -0.73551791         -0.02020083         -6.96824435
     6         -0.97589667          2.24685909         -8.36285017
     6         -0.89747725         -2.29784160         -8.35699328
     6         -1.36130190          2.25182113        -10.96197931
     6         -1.28164361         -2.32270227        -10.95623094
     6         -1.53225036         -0.04084179        -12.35079548
     7         -1.92369841         -0.05083160        -14.92394167
     1          1.11006478          0.02642460         12.83141593
     9         -1.49807762         11.96890338         -0.22161267
     9         -0.41936284          9.13845666         -2.98358933
     9          2.44742883         11.30045069         -1.01983637
     9          0.22615589         -9.12471394         -3.00822384
     9         -2.22448445        -11.34928271         -0.60024108
     9          1.81420685        -11.91616649         -0.46134302
     1         -0.86081828          4.05304079         -7.36654644
     1         -1.53485118          4.06387177        -11.92374406
     1         -1.39096304         -4.14202432        -11.91381353
     1         -0.71925416         -4.09641474         -7.35622582
     6         -2.18059412          2.31440966        -16.28661678
     6         -2.09757500         -2.42700212        -16.28074993
     1         -0.47501863          3.50868266        -16.11930115
     1         -3.80418372          3.44173726        -15.61001597
     1         -2.48028636          1.91878368        -18.29889284
     1         -3.67722545         -3.61081373        -15.59691540
     1         -0.34917694         -3.55808016        -16.11546843
     1         -2.41683137         -2.04724362        -18.29308433

 Electric dipole moment (dipole orientation):
 (Debye = 10**-18 statcoulomb cm , SI units = C m)
                  (au)            (Debye)         (10**-30 SI)
   Tot        0.154361D+01      0.392347D+01      0.130873D+02
   x          0.000000D+00      0.000000D+00      0.000000D+00
   y          0.000000D+00      0.000000D+00      0.000000D+00
   z          0.154361D+01      0.392347D+01      0.130873D+02

 Dipole polarizability, Alpha (dipole orientation).
 (esu units = cm**3 , SI units = C**2 m**2 J**-1)
 Alpha(0;0):
               (au)            (10**-24 esu)      (10**-40 SI)
   iso        0.669727D+03      0.992433D+02      0.110423D+03
   aniso      0.604464D+03      0.895723D+02      0.996626D+02
   xx         0.296703D+03      0.439669D+02      0.489198D+02
   yx         0.761503D+00      0.112843D+00      0.125555D+00
   yy         0.746684D+03      0.110647D+03      0.123112D+03
   zx         0.736768D+02      0.109178D+02      0.121477D+02
   zy         0.984532D+00      0.145893D+00      0.162327D+00
   zz         0.965794D+03      0.143116D+03      0.159238D+03
 Alpha(-w;w) w= 1907.0nm:
                  (au)         (10**-24 esu)      (10**-40 SI)
   iso        0.555129D+03      0.822616D+02      0.915283D+02
   aniso      0.548177D+03      0.812314D+02      0.903821D+02
   xx         0.220766D+03      0.327142D+02      0.363994D+02
   yx         0.982708D+00      0.145622D+00      0.162027D+00
   yy         0.614059D+03      0.909942D+02      0.101245D+03
   zx         0.678032D+02      0.100474D+02      0.111792D+02
   zy         0.923871D+00      0.136904D+00      0.152326D+00
   zz         0.830560D+03      0.123076D+03      0.136941D+03

 First dipole hyperpolarizability, Beta (dipole orientation).
 ||, _|_  parallel and perpendicular components, (z) with respect to z axis,
 vector components x,y,z.  Values do not include the 1/n! factor of 1/2.
 (esu units = statvolt**-1 cm**4 , SI units = C**3 m**3 J**-2)
 Beta(0;0,0):
               (au)            (10**-30 esu)      (10**-50 SI)
   || (z)     0.299208D+05      0.258492D+03      0.959369D+02
   _|_(z)     0.997360D+04      0.861641D+02      0.319790D+02
   x          0.179562D+05      0.155127D+03      0.575740D+02
   y          0.497498D+03      0.429799D+01      0.159516D+01
   z          0.149604D+06      0.129246D+04      0.479684D+03
   ||         0.301357D+05      0.260349D+03      0.966260D+02
   xxx        0.697897D+02      0.602928D+00      0.223771D+00
   xxy        0.936545D+01      0.809102D-01      0.300290D-01
   yxy        0.283683D+03      0.245080D+01      0.909590D+00
   yyy        0.262687D+02      0.226941D+00      0.842269D-01
   xxz        0.575368D+03      0.497074D+01      0.184484D+01
   yxz        0.472743D+02      0.408413D+00      0.151579D+00
   yyz        0.185638D+04      0.160377D+02      0.595223D+01
   zxz        0.563192D+04      0.486554D+02      0.180580D+02
   zyz        0.130198D+03      0.112481D+01      0.417463D+00
   zzz        0.474362D+05      0.409812D+03      0.152098D+03
 Beta(-w;w,0) w= 1907.0nm:
                  (au)         (10**-30 esu)      (10**-50 SI)
   || (z)     0.265337D+05      0.229230D+03      0.850766D+02
   _|_(z)     0.874325D+04      0.755349D+02      0.280340D+02
   x          0.159234D+05      0.137565D+03      0.510560D+02
   y          0.435268D+03      0.376038D+01      0.139563D+01
   z          0.132668D+06      0.114615D+04      0.425383D+03
   ||         0.267243D+05      0.230877D+03      0.856877D+02
   xxx        0.602445D+02      0.520465D+00      0.193166D+00
   yxx        0.753446D+01      0.650918D-01      0.241582D-01
   yyx        0.249143D+03      0.215241D+01      0.798844D+00
   zxx        0.527742D+03      0.455928D+01      0.169213D+01
   zyx        0.397983D+02      0.343826D+00      0.127608D+00
   zzx        0.494562D+04      0.427263D+02      0.158574D+02
   xxy        0.811726D+01      0.701268D-01      0.260269D-01
   yxy        0.297068D+03      0.256643D+01      0.952506D+00
   yyy        0.244156D+02      0.210932D+00      0.782853D-01
   zxy        0.401636D+02      0.346982D+00      0.128779D+00
   zyy        0.208276D+04      0.179935D+02      0.667809D+01
   zzy        0.111973D+03      0.967357D+00      0.359025D+00
   xxz        0.563402D+03      0.486736D+01      0.180647D+01
   yxz        0.375593D+02      0.324483D+00      0.120429D+00
   yyz        0.174316D+04      0.150596D+02      0.558921D+01
   zxz        0.497686D+04      0.429962D+02      0.159576D+02
   zyz        0.113431D+03      0.979959D+00      0.363702D+00
   zzz        0.417136D+05      0.360373D+03      0.133749D+03
 Beta(-2w;w,w) w= 1907.0nm:
                  (au)         (10**-30 esu)      (10**-50 SI)
   || (z)     0.370811D+05      0.320352D+03      0.118895D+03
   _|_(z)     0.125114D+05      0.108089D+03      0.401160D+02
   x          0.221855D+05      0.191666D+03      0.711349D+02
   y          0.587050D+03      0.507166D+01      0.188230D+01
   z          0.185406D+06      0.160176D+04      0.594477D+03
   ||         0.373458D+05      0.322639D+03      0.119744D+03
   xxx        0.824333D+02      0.712159D+00      0.264311D+00
   yxx        0.922127D+01      0.796646D-01      0.295667D-01
   zxx        0.751156D+03      0.648941D+01      0.240848D+01
   xyx        0.974153D+01      0.841592D-01      0.312349D-01
   yyx        0.436005D+03      0.376675D+01      0.139799D+01
   zyx        0.519329D+02      0.448660D+00      0.166516D+00
   xyy        0.494692D+03      0.427376D+01      0.158616D+01
   yyy        0.370609D+02      0.320178D+00      0.118831D+00
   zyy        0.380330D+04      0.328575D+02      0.121948D+02
   xzx        0.768374D+03      0.663816D+01      0.246369D+01
   yzx        0.479850D+02      0.414553D+00      0.153857D+00
   zzx        0.685143D+04      0.591910D+02      0.219682D+02
   xzy        0.476107D+02      0.411319D+00      0.152657D+00
   yzy        0.333307D+04      0.287952D+02      0.106870D+02
   zzy        0.148731D+03      0.128492D+01      0.476884D+00
   xzz        0.686868D+04      0.593400D+02      0.220235D+02
   yzz        0.149702D+03      0.129331D+01      0.479999D+00
   zzz        0.575494D+05      0.497182D+03      0.184524D+03

 ----------------------------------------------------------------------
 1\1\GINC-NEQC29\SP\RB3LYP\Gen\C28H17F8N3Pt1\GUEST\19-May-2023\0\\#p B3
 LYP/gen gfinput pseudo=read Integral(Grid=UltraFine,Acc2E=12) scf=maxc
 ycle=200 Polar=(DCSHG) CPHF=RdFreq scrf=(iefpcm,read,solvent=n,n-DiMet
 hylFormamide)\\Primeira Hiperpolarizabilidade\\0,1\Pt,0,1.008098,-0.00
 2554,-0.023564\C,0,-1.040778,0.006667,-0.073725\N,0,1.351872,-2.030588
 ,-0.021851\N,0,1.371945,2.022246,-0.008714\C,0,0.428756,2.975399,-0.04
 6602\C,0,0.398749,-2.973631,-0.063676\C,0,2.709059,2.370496,0.042286\C
 ,0,2.685437,-2.392871,0.022148\C,0,3.612802,-1.258329,0.063032\C,0,3.6
 25038,1.226484,0.074159\C,0,5.026887,1.184637,0.123314\C,0,3.072337,3.
 724956,0.058798\C,0,2.092345,4.709726,0.020417\C,0,0.74498,4.330839,-0
 .035451\C,0,5.014989,-1.230647,0.112194\C,0,5.723602,-0.026575,0.14265
 8\C,0,3.034924,-3.751151,0.020208\C,0,2.044754,-4.725434,-0.024916\H,0
 ,4.086755,-4.028899,0.051962\C,0,0.700942,-4.332187,-0.06618\C,0,2.958
 548,-0.012537,0.045884\F,0,5.721231,-2.369922,0.130392\F,0,5.744306,2.
 316718,0.152261\H,0,-0.628075,-2.608296,-0.098527\C,0,-0.398457,-5.362
 28,-0.086817\H,0,2.317868,-5.782506,-0.030833\H,0,-0.601877,2.621014,-
 0.083278\C,0,-0.341058,5.372771,-0.108014\H,0,4.126637,3.99134,0.10292
 3\H,0,2.375744,5.7639,0.037457\C,0,-2.277388,0.010047,-0.060642\C,0,-3
 .707803,0.013889,-0.028194\C,0,-4.447523,1.218102,0.023999\C,0,-4.4555
 8,-1.186483,-0.034584\C,0,-5.837091,1.229509,0.071927\C,0,-5.845235,-1
 .190852,0.01257\C,0,-6.585491,0.021157,0.070201\N,0,-7.961809,0.02453,
 0.122795\H,0,6.813007,-0.032126,0.180343\F,0,-0.164121,6.329015,0.8211
 11\F,0,-1.561973,4.845788,0.078463\F,0,-0.351158,5.992134,-1.303574\F,
 0,-1.600001,-4.815854,-0.333542\F,0,-0.487575,-6.010889,1.089708\F,0,-
 0.175967,-6.29735,-1.027787\H,0,-3.910527,2.170366,0.029839\H,0,-6.346
 824,2.1915,0.112978\H,0,-6.361574,-2.1502,0.005956\H,0,-3.925014,-2.14
 1478,-0.075718\C,0,-8.685382,1.280514,0.185956\C,0,-8.693844,-1.228145
 ,0.124189\H,0,-8.491668,1.917746,-0.696229\H,0,-8.422404,1.868759,1.08
 4316\H,0,-9.762669,1.077962,0.222194\H,0,-8.432484,-1.862718,0.990876\
 H,0,-8.506737,-1.821219,-0.789689\H,0,-9.76963,-1.020469,0.17373\\Vers
 ion=EM64L-G09RevD.01\State=1-A\HF=-2160.19369\RMSD=3.257e-09\Dipole=1.
 5337684,-0.0113597,0.1736631\Polar=973.8017891,-0.4510358,746.6650305,
 3.0137328,2.7047259,288.7147604\HyperPolar=48436.967466,-152.693304,18
 77.0242642,-9.127151,-241.3646253,-16.9949997,-72.5927746,-89.1901659,
 -0.002518,-21.6832014\Quadrupole=34.4388491,-7.1048652,-27.3339839,-0.
 1253425,-1.0318231,0.7575731\PG=C01 [X(C28H17F8N3Pt1)]\\@


 IF I AM NOT FOR MYSELF, WHO WILL BE?
 BUT IF I AM ONLY FOR MYSELF, WHAT AM I?
 THOUGH A SEEKER SINCE MY BIRTH,
 HERE IS ALL I'VE LEARNED ON EARTH,
 THIS IS THE GIST OF WHAT I KNOW:
 GIVE ADVICE AND BUY A FOE.

 PRESSED FOR RULES AND VERITIES,
 ALL I RECOLLECT ARE THESE:
 FEED A COLD TO STARVE A FEVER,
 ARGUE WITH NO TRUE-BELIEVER.
 THINK-TOO-LONG IS NEVER-ACT,
 SCRATCH A MYTH AND FIND A FACT.

 STITCH IN TIME SAVES TWENTY STITCHES,
 GIVE THE RICH TO PLEASE THEM, RICHES.
 GIVE TO LOVE YOU HEARTH AND HALL,
 BUT DO NOT GIVE ADVICE AT ALL.

                                  -- HILLEL
 Job cpu time:      11 days  1 hours 38 minutes 44.3 seconds.
 File lengths (MBytes):  RWF=   8277 Int=      0 D2E=      0 Chk=     96 Scr=      1
 Normal termination of Gaussian 09 at Fri May 19 20:16:14 2023.
