 Entering Gaussian System, Link 0=g16
 Input=/home/nqtcm/NLOMILENA/OPT_B3LYP_LANL2TZF_def2SVP_ONL_B3LYP_jorgeTZP_def2SVP_IEFPCM.com
 Output=/home/nqtcm/NLOMILENA/OPT_B3LYP_LANL2TZF_def2SVP_ONL_B3LYP_jorgeTZP_def2SVP_IEFPCM.log
 Initial command:
 /scr/programas/g16/l1.exe "/scr/nqtcm/Gau-18576.inp" -scrdir="/scr/nqtcm/"
 Entering Link 1 = /scr/programas/g16/l1.exe PID=     18578.
  
 Copyright (c) 1988-2019, Gaussian, Inc.  All Rights Reserved.
  
 This is part of the Gaussian(R) 16 program.  It is based on
 the Gaussian(R) 09 system (copyright 2009, Gaussian, Inc.),
 the Gaussian(R) 03 system (copyright 2003, Gaussian, Inc.),
 the Gaussian(R) 98 system (copyright 1998, Gaussian, Inc.),
 the Gaussian(R) 94 system (copyright 1995, Gaussian, Inc.),
 the Gaussian 92(TM) system (copyright 1992, Gaussian, Inc.),
 the Gaussian 90(TM) system (copyright 1990, Gaussian, Inc.),
 the Gaussian 88(TM) system (copyright 1988, Gaussian, Inc.),
 the Gaussian 86(TM) system (copyright 1986, Carnegie Mellon
 University), and the Gaussian 82(TM) system (copyright 1983,
 Carnegie Mellon University). Gaussian is a federally registered
 trademark of Gaussian, Inc.
  
 This software contains proprietary and confidential information,
 including trade secrets, belonging to Gaussian, Inc.
  
 This software is provided under written license and may be
 used, copied, transmitted, or stored only in accord with that
 written license.
  
 The following legend is applicable only to US Government
 contracts under FAR:
  
                    RESTRICTED RIGHTS LEGEND
  
 Use, reproduction and disclosure by the US Government is
 subject to restrictions as set forth in subparagraphs (a)
 and (c) of the Commercial Computer Software - Restricted
 Rights clause in FAR 52.227-19.
  
 Gaussian, Inc.
 340 Quinnipiac St., Bldg. 40, Wallingford CT 06492
  
  
 ---------------------------------------------------------------
 Warning -- This program may not be used in any manner that
 competes with the business of Gaussian, Inc. or will provide
 assistance to any competitor of Gaussian, Inc.  The licensee
 of this program is prohibited from giving any competitor of
 Gaussian, Inc. access to this program.  By using this program,
 the user acknowledges that Gaussian, Inc. is engaged in the
 business of creating and licensing software in the field of
 computational chemistry and represents and warrants to the
 licensee that it is not a competitor of Gaussian, Inc. and that
 it will not use this program in any manner prohibited above.
 ---------------------------------------------------------------
  

 Cite this work as:
 Gaussian 16, Revision C.01,
 M. J. Frisch, G. W. Trucks, H. B. Schlegel, G. E. Scuseria, 
 M. A. Robb, J. R. Cheeseman, G. Scalmani, V. Barone, 
 G. A. Petersson, H. Nakatsuji, X. Li, M. Caricato, A. V. Marenich, 
 J. Bloino, B. G. Janesko, R. Gomperts, B. Mennucci, H. P. Hratchian, 
 J. V. Ortiz, A. F. Izmaylov, J. L. Sonnenberg, D. Williams-Young, 
 F. Ding, F. Lipparini, F. Egidi, J. Goings, B. Peng, A. Petrone, 
 T. Henderson, D. Ranasinghe, V. G. Zakrzewski, J. Gao, N. Rega, 
 G. Zheng, W. Liang, M. Hada, M. Ehara, K. Toyota, R. Fukuda, 
 J. Hasegawa, M. Ishida, T. Nakajima, Y. Honda, O. Kitao, H. Nakai, 
 T. Vreven, K. Throssell, J. A. Montgomery, Jr., J. E. Peralta, 
 F. Ogliaro, M. J. Bearpark, J. J. Heyd, E. N. Brothers, K. N. Kudin, 
 V. N. Staroverov, T. A. Keith, R. Kobayashi, J. Normand, 
 K. Raghavachari, A. P. Rendell, J. C. Burant, S. S. Iyengar, 
 J. Tomasi, M. Cossi, J. M. Millam, M. Klene, C. Adamo, R. Cammi, 
 J. W. Ochterski, R. L. Martin, K. Morokuma, O. Farkas, 
 J. B. Foresman, and D. J. Fox, Gaussian, Inc., Wallingford CT, 2019.
 
 ******************************************
 Gaussian 16:  EM64L-G16RevC.01  3-Jul-2019
                12-Apr-2023 
 ******************************************
 %chk=OPT_B3LYP_LANL2TZF_def2SVP_ONL_B3LYP_jorgeTZP_def2SVP_IEFPCM.chk
 %mem=60Gb
 %nproc=12
 Will use up to   12 processors via shared memory.
 ----------------------------------------------------------------------
 #p B3LYP/gen gfinput Integral(Grid=UltraFine,Acc2E=12) scf=maxcycle=20
 0 Polar=(DCSHG) CPHF=RdFreq scrf=(iefpcm,solvent=n,n-DiMethylFormamide
 )
 ----------------------------------------------------------------------
 1/38=1,83=1,172=1/1;
 2/12=2,17=6,18=5,40=1/2;
 3/5=7,11=2,24=10,25=1,27=12,30=1,70=2201,72=148,74=-5,75=-5/1,2,3;
 4//1;
 5/5=2,7=200,38=5,53=148,87=12,98=1/2;
 8/6=4,10=90,11=11,87=12/1;
 10/6=20001,13=10,72=3,87=12/2;
 6/7=2,8=2,9=2,10=2,28=1,87=12/1;
 99/5=1,9=1/99;
 Leave Link    1 at Wed Apr 12 12:49:15 2023, MaxMem=  8053063680 cpu:               0.5 elap:               0.0
 (Enter /scr/programas/g16/l101.exe)
 ------------------------------
 Primeira Hiperpolarizabilidade
 ------------------------------
 Symbolic Z-matrix:
 Charge =  0 Multiplicity = 1
 Pt                    1.0081   -0.00255  -0.02356 
 C                    -1.04078   0.00667  -0.07373 
 N                     1.35187  -2.03059  -0.02185 
 N                     1.37195   2.02225  -0.00871 
 C                     0.42876   2.9754   -0.0466 
 C                     0.39875  -2.97363  -0.06368 
 C                     2.70906   2.3705    0.04229 
 C                     2.68544  -2.39287   0.02215 
 C                     3.6128   -1.25833   0.06303 
 C                     3.62504   1.22648   0.07416 
 C                     5.02689   1.18464   0.12331 
 C                     3.07234   3.72496   0.0588 
 C                     2.09234   4.70973   0.02042 
 C                     0.74498   4.33084  -0.03545 
 C                     5.01499  -1.23065   0.11219 
 C                     5.7236   -0.02658   0.14266 
 C                     3.03492  -3.75115   0.02021 
 C                     2.04475  -4.72543  -0.02492 
 H                     4.08676  -4.0289    0.05196 
 C                     0.70094  -4.33219  -0.06618 
 C                     2.95855  -0.01254   0.04588 
 F                     5.72123  -2.36992   0.13039 
 F                     5.74431   2.31672   0.15226 
 H                    -0.62808  -2.6083   -0.09853 
 C                    -0.39846  -5.36228  -0.08682 
 H                     2.31787  -5.78251  -0.03083 
 H                    -0.60188   2.62101  -0.08328 
 C                    -0.34106   5.37277  -0.10801 
 H                     4.12664   3.99134   0.10292 
 H                     2.37574   5.7639    0.03746 
 C                    -2.27739   0.01005  -0.06064 
 C                    -3.7078    0.01389  -0.02819 
 C                    -4.44752   1.2181    0.024 
 C                    -4.45558  -1.18648  -0.03458 
 C                    -5.83709   1.22951   0.07193 
 C                    -5.84524  -1.19085   0.01257 
 C                    -6.58549   0.02116   0.0702 
 N                    -7.96181   0.02453   0.1228 
 H                     6.81301  -0.03213   0.18034 
 F                    -0.16412   6.32902   0.82111 
 F                    -1.56197   4.84579   0.07846 
 F                    -0.35116   5.99213  -1.30357 
 F                    -1.6      -4.81585  -0.33354 
 F                    -0.48758  -6.01089   1.08971 
 F                    -0.17597  -6.29735  -1.02779 
 H                    -3.91053   2.17037   0.02984 
 H                    -6.34682   2.1915    0.11298 
 H                    -6.36157  -2.1502    0.00596 
 H                    -3.92501  -2.14148  -0.07572 
 C                    -8.68538   1.28051   0.18596 
 C                    -8.69384  -1.22815   0.12419 
 H                    -8.49167   1.91775  -0.69623 
 H                    -8.4224    1.86876   1.08432 
 H                    -9.76267   1.07796   0.22219 
 H                    -8.43248  -1.86272   0.99088 
 H                    -8.50674  -1.82122  -0.78969 
 H                    -9.76963  -1.02047   0.17373 
 
 ITRead=  0  0  0  0  0  0  0  0  0  0  0  0  0  0  0  0  0  0  0  0
 ITRead=  0  0  0  0  0  0  0  0  0  0  0  0  0  0  0  0  0  0  0  0
 ITRead=  0  0  0  0  0  0  0  0  0  0  0  0  0  0  0  0  0
 MicOpt= -1 -1 -1 -1 -1 -1 -1 -1 -1 -1 -1 -1 -1 -1 -1 -1 -1 -1 -1 -1
 MicOpt= -1 -1 -1 -1 -1 -1 -1 -1 -1 -1 -1 -1 -1 -1 -1 -1 -1 -1 -1 -1
 MicOpt= -1 -1 -1 -1 -1 -1 -1 -1 -1 -1 -1 -1 -1 -1 -1 -1 -1
 NAtoms=     57 NQM=       57 NQMF=       0 NMMI=      0 NMMIF=      0
                NMic=       0 NMicF=      0.
                    Isotopes and Nuclear Properties:
 (Nuclear quadrupole moments (NQMom) in fm**2, nuclear magnetic moments (NMagM)
  in nuclear magnetons)

  Atom         1           2           3           4           5           6           7           8           9          10
 IAtWgt=         195          12          14          14          12          12          12          12          12          12
 AtmWgt= 194.9648000  12.0000000  14.0030740  14.0030740  12.0000000  12.0000000  12.0000000  12.0000000  12.0000000  12.0000000
 NucSpn=           1           0           2           2           0           0           0           0           0           0
 AtZEff=  -0.0000000  -0.0000000  -0.0000000  -0.0000000  -0.0000000  -0.0000000  -0.0000000  -0.0000000  -0.0000000  -0.0000000
 NQMom=    0.0000000   0.0000000   2.0440000   2.0440000   0.0000000   0.0000000   0.0000000   0.0000000   0.0000000   0.0000000
 NMagM=    0.6095000   0.0000000   0.4037610   0.4037610   0.0000000   0.0000000   0.0000000   0.0000000   0.0000000   0.0000000
 AtZNuc=  78.0000000   6.0000000   7.0000000   7.0000000   6.0000000   6.0000000   6.0000000   6.0000000   6.0000000   6.0000000

  Atom        11          12          13          14          15          16          17          18          19          20
 IAtWgt=          12          12          12          12          12          12          12          12           1          12
 AtmWgt=  12.0000000  12.0000000  12.0000000  12.0000000  12.0000000  12.0000000  12.0000000  12.0000000   1.0078250  12.0000000
 NucSpn=           0           0           0           0           0           0           0           0           1           0
 AtZEff=  -0.0000000  -0.0000000  -0.0000000  -0.0000000  -0.0000000  -0.0000000  -0.0000000  -0.0000000  -0.0000000  -0.0000000
 NQMom=    0.0000000   0.0000000   0.0000000   0.0000000   0.0000000   0.0000000   0.0000000   0.0000000   0.0000000   0.0000000
 NMagM=    0.0000000   0.0000000   0.0000000   0.0000000   0.0000000   0.0000000   0.0000000   0.0000000   2.7928460   0.0000000
 AtZNuc=   6.0000000   6.0000000   6.0000000   6.0000000   6.0000000   6.0000000   6.0000000   6.0000000   1.0000000   6.0000000

  Atom        21          22          23          24          25          26          27          28          29          30
 IAtWgt=          12          19          19           1          12           1           1          12           1           1
 AtmWgt=  12.0000000  18.9984033  18.9984033   1.0078250  12.0000000   1.0078250   1.0078250  12.0000000   1.0078250   1.0078250
 NucSpn=           0           1           1           1           0           1           1           0           1           1
 AtZEff=  -0.0000000  -0.0000000  -0.0000000  -0.0000000  -0.0000000  -0.0000000  -0.0000000  -0.0000000  -0.0000000  -0.0000000
 NQMom=    0.0000000   0.0000000   0.0000000   0.0000000   0.0000000   0.0000000   0.0000000   0.0000000   0.0000000   0.0000000
 NMagM=    0.0000000   2.6288670   2.6288670   2.7928460   0.0000000   2.7928460   2.7928460   0.0000000   2.7928460   2.7928460
 AtZNuc=   6.0000000   9.0000000   9.0000000   1.0000000   6.0000000   1.0000000   1.0000000   6.0000000   1.0000000   1.0000000

  Atom        31          32          33          34          35          36          37          38          39          40
 IAtWgt=          12          12          12          12          12          12          12          14           1          19
 AtmWgt=  12.0000000  12.0000000  12.0000000  12.0000000  12.0000000  12.0000000  12.0000000  14.0030740   1.0078250  18.9984033
 NucSpn=           0           0           0           0           0           0           0           2           1           1
 AtZEff=  -0.0000000  -0.0000000  -0.0000000  -0.0000000  -0.0000000  -0.0000000  -0.0000000  -0.0000000  -0.0000000  -0.0000000
 NQMom=    0.0000000   0.0000000   0.0000000   0.0000000   0.0000000   0.0000000   0.0000000   2.0440000   0.0000000   0.0000000
 NMagM=    0.0000000   0.0000000   0.0000000   0.0000000   0.0000000   0.0000000   0.0000000   0.4037610   2.7928460   2.6288670
 AtZNuc=   6.0000000   6.0000000   6.0000000   6.0000000   6.0000000   6.0000000   6.0000000   7.0000000   1.0000000   9.0000000

  Atom        41          42          43          44          45          46          47          48          49          50
 IAtWgt=          19          19          19          19          19           1           1           1           1          12
 AtmWgt=  18.9984033  18.9984033  18.9984033  18.9984033  18.9984033   1.0078250   1.0078250   1.0078250   1.0078250  12.0000000
 NucSpn=           1           1           1           1           1           1           1           1           1           0
 AtZEff=  -0.0000000  -0.0000000  -0.0000000  -0.0000000  -0.0000000  -0.0000000  -0.0000000  -0.0000000  -0.0000000  -0.0000000
 NQMom=    0.0000000   0.0000000   0.0000000   0.0000000   0.0000000   0.0000000   0.0000000   0.0000000   0.0000000   0.0000000
 NMagM=    2.6288670   2.6288670   2.6288670   2.6288670   2.6288670   2.7928460   2.7928460   2.7928460   2.7928460   0.0000000
 AtZNuc=   9.0000000   9.0000000   9.0000000   9.0000000   9.0000000   1.0000000   1.0000000   1.0000000   1.0000000   6.0000000

  Atom        51          52          53          54          55          56          57
 IAtWgt=          12           1           1           1           1           1           1
 AtmWgt=  12.0000000   1.0078250   1.0078250   1.0078250   1.0078250   1.0078250   1.0078250
 NucSpn=           0           1           1           1           1           1           1
 AtZEff=  -0.0000000  -0.0000000  -0.0000000  -0.0000000  -0.0000000  -0.0000000  -0.0000000
 NQMom=    0.0000000   0.0000000   0.0000000   0.0000000   0.0000000   0.0000000   0.0000000
 NMagM=    0.0000000   2.7928460   2.7928460   2.7928460   2.7928460   2.7928460   2.7928460
 AtZNuc=   6.0000000   1.0000000   1.0000000   1.0000000   1.0000000   1.0000000   1.0000000
 Using perturbation frequencies:    0.000000    0.023893
 Leave Link  101 at Wed Apr 12 12:49:15 2023, MaxMem=  8053063680 cpu:               1.3 elap:               0.1
 (Enter /scr/programas/g16/l202.exe)
 Stoichiometry    C28H17F8N3Pt
 Framework group  C1[X(C28H17F8N3Pt)]
 Deg. of freedom   165
 Full point group                 C1      NOp   1
 Largest Abelian subgroup         C1      NOp   1
 Largest concise Abelian subgroup C1      NOp   1
                         Standard orientation:                         
 ---------------------------------------------------------------------
 Center     Atomic      Atomic             Coordinates (Angstroms)
 Number     Number       Type             X           Y           Z
 ---------------------------------------------------------------------
      1         78           0       -1.008098   -0.002554    0.023564
      2          6           0        1.040778    0.006667    0.073725
      3          7           0       -1.351872   -2.030588    0.021851
      4          7           0       -1.371945    2.022246    0.008714
      5          6           0       -0.428755    2.975399    0.046602
      6          6           0       -0.398749   -2.973631    0.063676
      7          6           0       -2.709059    2.370497   -0.042286
      8          6           0       -2.685437   -2.392870   -0.022148
      9          6           0       -3.612802   -1.258328   -0.063032
     10          6           0       -3.625038    1.226485   -0.074159
     11          6           0       -5.026887    1.184638   -0.123314
     12          6           0       -3.072336    3.724957   -0.058798
     13          6           0       -2.092344    4.709726   -0.020417
     14          6           0       -0.744979    4.330839    0.035451
     15          6           0       -5.014989   -1.230646   -0.112194
     16          6           0       -5.723602   -0.026574   -0.142658
     17          6           0       -3.034925   -3.751150   -0.020208
     18          6           0       -2.044755   -4.725434    0.024916
     19          1           0       -4.086756   -4.028898   -0.051962
     20          6           0       -0.700943   -4.332187    0.066180
     21          6           0       -2.958548   -0.012536   -0.045884
     22          9           0       -5.721231   -2.369921   -0.130392
     23          9           0       -5.744306    2.316719   -0.152261
     24          1           0        0.628075   -2.608296    0.098527
     25          6           0        0.398456   -5.362280    0.086817
     26          1           0       -2.317869   -5.782506    0.030833
     27          1           0        0.601877    2.621014    0.083278
     28          6           0        0.341059    5.372771    0.108014
     29          1           0       -4.126636    3.991341   -0.102923
     30          1           0       -2.375743    5.763900   -0.037457
     31          6           0        2.277388    0.010047    0.060642
     32          6           0        3.707803    0.013889    0.028194
     33          6           0        4.447523    1.218101   -0.023999
     34          6           0        4.455580   -1.186484    0.034584
     35          6           0        5.837091    1.229508   -0.071927
     36          6           0        5.845235   -1.190853   -0.012570
     37          6           0        6.585491    0.021156   -0.070201
     38          7           0        7.961809    0.024529   -0.122795
     39          1           0       -6.813007   -0.032125   -0.180343
     40          9           0        0.164122    6.329015   -0.821111
     41          9           0        1.561974    4.845788   -0.078463
     42          9           0        0.351159    5.992134    1.303574
     43          9           0        1.600000   -4.815854    0.333542
     44          9           0        0.487574   -6.010889   -1.089708
     45          9           0        0.175966   -6.297350    1.027787
     46          1           0        3.910527    2.170366   -0.029839
     47          1           0        6.346824    2.191499   -0.112978
     48          1           0        6.361574   -2.150201   -0.005956
     49          1           0        3.925014   -2.141478    0.075718
     50          6           0        8.685382    1.280513   -0.185956
     51          6           0        8.693844   -1.228146   -0.124189
     52          1           0        8.491668    1.917745    0.696229
     53          1           0        8.422404    1.868758   -1.084316
     54          1           0        9.762669    1.077961   -0.222194
     55          1           0        8.432484   -1.862719   -0.990876
     56          1           0        8.506737   -1.821220    0.789689
     57          1           0        9.769630   -1.020470   -0.173730
 ---------------------------------------------------------------------
 Rotational constants (GHZ):           0.0734786           0.0557567           0.0320899
 Leave Link  202 at Wed Apr 12 12:49:15 2023, MaxMem=  8053063680 cpu:               0.2 elap:               0.0
 (Enter /scr/programas/g16/l301.exe)
 General basis read from cards:  (5D, 7F)
 Centers:      19     24     26     27     29     30     39     46     47     48
 Centers:      49     52     53     54     55     56     57
 S 3 1.00
     Exponent=  1.3010701000D+01 Coefficients=  1.9682158000D-02
     Exponent=  1.9622572000D+00 Coefficients=  1.3796524000D-01
     Exponent=  4.4453796000D-01 Coefficients=  4.7831935000D-01
 S 1 1.00
     Exponent=  1.2194962000D-01 Coefficients=  1.0000000000D+00
 P 1 1.00
     Exponent=  8.0000000000D-01 Coefficients=  1.0000000000D+00
 ****
 Centers:       2      5      6      7      8      9     10     11     12     13
 Centers:      14     15     16     17     18     20     21     25     28     31
 Centers:      32     33     34     35     36     37     50     51
 S 5 1.00
     Exponent=  1.2384016938D+03 Coefficients=  5.4568832082D-03
     Exponent=  1.8629004992D+02 Coefficients=  4.0638409211D-02
     Exponent=  4.2251176346D+01 Coefficients=  1.8025593888D-01
     Exponent=  1.1676557932D+01 Coefficients=  4.6315121755D-01
     Exponent=  3.5930506482D+00 Coefficients=  4.4087173314D-01
 S 1 1.00
     Exponent=  4.0245147363D-01 Coefficients=  1.0000000000D+00
 S 1 1.00
     Exponent=  1.3090182668D-01 Coefficients=  1.0000000000D+00
 P 3 1.00
     Exponent=  9.4680970621D+00 Coefficients=  3.8387871728D-02
     Exponent=  2.0103545142D+00 Coefficients=  2.1117025112D-01
     Exponent=  5.4771004707D-01 Coefficients=  5.1328172114D-01
 P 1 1.00
     Exponent=  1.5268613795D-01 Coefficients=  1.0000000000D+00
 D 1 1.00
     Exponent=  8.0000000000D-01 Coefficients=  1.0000000000D+00
 ****
 Centers:       3      4     38
 S 5 1.00
     Exponent=  1.7128415853D+03 Coefficients= -5.3934125305D-03
     Exponent=  2.5764812677D+02 Coefficients= -4.0221581118D-02
     Exponent=  5.8458245853D+01 Coefficients= -1.7931144990D-01
     Exponent=  1.6198367905D+01 Coefficients= -4.6376317823D-01
     Exponent=  5.0052600809D+00 Coefficients= -4.4171422662D-01
 S 1 1.00
     Exponent=  5.8731856571D-01 Coefficients=  1.0000000000D+00
 S 1 1.00
     Exponent=  1.8764592253D-01 Coefficients=  1.0000000000D+00
 P 3 1.00
     Exponent=  1.3571470233D+01 Coefficients= -4.0072398852D-02
     Exponent=  2.9257372874D+00 Coefficients= -2.1807045028D-01
     Exponent=  7.9927750754D-01 Coefficients= -5.1294466049D-01
 P 1 1.00
     Exponent=  2.1954348034D-01 Coefficients=  1.0000000000D+00
 D 1 1.00
     Exponent=  1.0000000000D+00 Coefficients=  1.0000000000D+00
 ****
 Centers:      22     23     40     41     42     43     44     45
 S 5 1.00
     Exponent=  2.8948325990D+03 Coefficients= -5.3408255515D-03
     Exponent=  4.3541939120D+02 Coefficients= -3.9904258866D-02
     Exponent=  9.8843328866D+01 Coefficients= -1.7912768038D-01
     Exponent=  2.7485198001D+01 Coefficients= -4.6758090825D-01
     Exponent=  8.5405498171D+00 Coefficients= -4.4653131020D-01
 S 1 1.00
     Exponent=  1.0654578038D+00 Coefficients=  1.0000000000D+00
 S 1 1.00
     Exponent=  3.3247346748D-01 Coefficients=  1.0000000000D+00
 P 3 1.00
     Exponent=  2.2696633924D+01 Coefficients= -4.5212874436D-02
     Exponent=  4.9872339257D+00 Coefficients= -2.3754317067D-01
     Exponent=  1.3491613954D+00 Coefficients= -5.1287353587D-01
 P 1 1.00
     Exponent=  3.4829881977D-01 Coefficients=  1.0000000000D+00
 D 1 1.00
     Exponent=  1.4000000000D+00 Coefficients=  1.0000000000D+00
 ****
 Centers:       1
 S 8 1.00
     Exponent=  1.3290538026D+07 Coefficients= -1.1450000000D-04
     Exponent=  2.1073235979D+06 Coefficients= -9.0260000000D-04
     Exponent=  5.4571108893D+05 Coefficients= -2.9638000000D-03
     Exponent=  1.8465015802D+05 Coefficients= -1.3695800000D-02
     Exponent=  7.1796847319D+04 Coefficients= -2.2926700000D-02
     Exponent=  3.0346229081D+04 Coefficients= -1.1346540000D-01
     Exponent=  1.3153605837D+04 Coefficients= -1.6880210000D-01
     Exponent=  5.4540400370D+03 Coefficients= -7.5367080000D-01
 S 3 1.00
     Exponent=  2.2316508159D+03 Coefficients=  3.6022040000D-01
     Exponent=  9.4101868081D+02 Coefficients=  5.3046660000D-01
     Exponent=  4.1401148396D+02 Coefficients=  1.6471800000D-01
 S 2 1.00
     Exponent=  1.7756528482D+02 Coefficients=  4.3006850000D-01
     Exponent=  8.3758070710D+01 Coefficients=  5.9476510000D-01
 S 3 1.00
     Exponent=  3.2568870860D+01 Coefficients=  1.0311020000D+00
     Exponent=  1.7173509550D+01 Coefficients=  1.3397328000D+00
     Exponent=  7.0091760100D+00 Coefficients= -1.3708348000D+00
 S 1 1.00
     Exponent=  3.5657139800D+00 Coefficients=  1.0000000000D+00
 S 1 1.00
     Exponent=  1.2592445300D+00 Coefficients= -1.0000000000D+00
 S 1 1.00
     Exponent=  5.4260461000D-01 Coefficients= -1.0000000000D+00
 S 1 1.00
     Exponent=  9.0624380000D-02 Coefficients=  1.0000000000D+00
 S 1 1.00
     Exponent=  3.3432000000D-02 Coefficients=  1.0000000000D+00
 P 8 1.00
     Exponent=  5.3704321226D+04 Coefficients=  3.3230000000D-04
     Exponent=  1.3157019865D+04 Coefficients=  2.6257000000D-03
     Exponent=  4.7362702669D+03 Coefficients=  1.1255100000D-02
     Exponent=  2.0274904492D+03 Coefficients=  4.1330200000D-02
     Exponent=  8.6346944881D+02 Coefficients=  1.4555580000D-01
     Exponent=  3.6801666083D+02 Coefficients=  3.5286920000D-01
     Exponent=  1.6216772869D+02 Coefficients=  4.3988510000D-01
     Exponent=  7.1972703380D+01 Coefficients=  1.7773290000D-01
 P 1 1.00
     Exponent=  3.4247472730D+01 Coefficients= -1.0000000000D+00
 P 3 1.00
     Exponent=  1.6274236910D+01 Coefficients=  1.8711610000D-01
     Exponent=  7.5518576400D+00 Coefficients=  4.6090900000D-01
     Exponent=  3.5400310100D+00 Coefficients=  4.3449220000D-01
 P 1 1.00
     Exponent=  1.3324377900D+00 Coefficients=  1.0000000000D+00
 P 1 1.00
     Exponent=  4.9391863000D-01 Coefficients=  1.0000000000D+00
 D 5 1.00
     Exponent=  1.5789683845D+03 Coefficients=  5.5644000000D-03
     Exponent=  4.6141635624D+02 Coefficients=  4.9319600000D-02
     Exponent=  1.7118167743D+02 Coefficients=  2.1444410000D-01
     Exponent=  7.1366950050D+01 Coefficients=  4.6560990000D-01
     Exponent=  3.1684661780D+01 Coefficients=  4.3732190000D-01
 D 2 1.00
     Exponent=  1.3545053210D+01 Coefficients= -5.2188980000D-01
     Exponent=  5.8362546700D+00 Coefficients= -5.5022780000D-01
 D 1 1.00
     Exponent=  2.2832710800D+00 Coefficients=  1.0000000000D+00
 D 1 1.00
     Exponent=  8.4484169000D-01 Coefficients=  1.0000000000D+00
 D 1 1.00
     Exponent=  2.5806105000D-01 Coefficients=  1.0000000000D+00
 F 4 1.00
     Exponent=  8.2240837440D+01 Coefficients=  7.3760100000D-02
     Exponent=  2.6172833300D+01 Coefficients=  3.1694360000D-01
     Exponent=  9.2927560000D+00 Coefficients=  5.3919790000D-01
     Exponent=  3.0986774300D+00 Coefficients=  3.7527630000D-01
 F 1 1.00
     Exponent=  2.1784385100D+00 Coefficients=  1.0000000000D+00
 F 1 1.00
     Exponent=  9.4904299000D-01 Coefficients=  1.0000000000D+00
 G 1 1.00
     Exponent=  1.8940633700D+00 Coefficients=  1.0000000000D+00
 ****
 Ernie: Thresh=  0.10000D-02 Tol=  0.10000D-05 Strict=F.
 AO basis set in the form of general basis input (Overlap normalization):
      1 0
 S   8 1.00       0.000000000000
      0.1329053803D+08 -0.1144999906D-03
      0.2107323598D+07 -0.9025999256D-03
      0.5457110889D+06 -0.2963799756D-02
      0.1846501580D+06 -0.1369579887D-01
      0.7179684732D+05 -0.2292669811D-01
      0.3034622908D+05 -0.1134653906D+00
      0.1315360584D+05 -0.1688020861D+00
      0.5454040037D+04 -0.7536707379D+00
 S   3 1.00       0.000000000000
      0.2231650816D+04  0.3602204079D+00
      0.9410186808D+03  0.5304666116D+00
      0.4140114840D+03  0.1647180036D+00
 S   3 1.00       0.000000000000
      0.3256887086D+02  0.6891922281D+00
      0.1717350955D+02  0.8954821478D+00
      0.7009176010D+01 -0.9162708347D+00
 S   2 1.00       0.000000000000
      0.1775652848D+03  0.4300684929D+00
      0.8375807071D+02  0.5947650902D+00
 S   1 1.00       0.000000000000
      0.3565713980D+01  0.1000000000D+01
 S   1 1.00       0.000000000000
      0.1259244530D+01 -0.1000000000D+01
 S   1 1.00       0.000000000000
      0.5426046100D+00 -0.1000000000D+01
 S   1 1.00       0.000000000000
      0.9062438000D-01  0.1000000000D+01
 S   1 1.00       0.000000000000
      0.3343200000D-01  0.1000000000D+01
 P   8 1.00       0.000000000000
      0.5370432123D+05  0.3323000217D-03
      0.1315701986D+05  0.2625700172D-02
      0.4736270267D+04  0.1125510074D-01
      0.2027490449D+04  0.4133020270D-01
      0.8634694488D+03  0.1455558095D+00
      0.3680166608D+03  0.3528692231D+00
      0.1621677287D+03  0.4398851287D+00
      0.7197270338D+02  0.1777329116D+00
 P   3 1.00       0.000000000000
      0.1627423691D+02  0.1871160944D+00
      0.7551857640D+01  0.4609089861D+00
      0.3540031010D+01  0.4344921869D+00
 P   1 1.00       0.000000000000
      0.3424747273D+02 -0.1000000000D+01
 P   1 1.00       0.000000000000
      0.1332437790D+01  0.1000000000D+01
 P   1 1.00       0.000000000000
      0.4939186300D+00  0.1000000000D+01
 D   5 1.00       0.000000000000
      0.1578968385D+04  0.5564399977D-02
      0.4614163562D+03  0.4931959980D-01
      0.1711816774D+03  0.2144440991D+00
      0.7136695005D+02  0.4656098981D+00
      0.3168466178D+02  0.4373218982D+00
 D   2 1.00       0.000000000000
      0.1354505321D+02 -0.5218898008D+00
      0.5836254670D+01 -0.5502278009D+00
 D   1 1.00       0.000000000000
      0.2283271080D+01  0.1000000000D+01
 D   1 1.00       0.000000000000
      0.8448416900D+00  0.1000000000D+01
 D   1 1.00       0.000000000000
      0.2580610500D+00  0.1000000000D+01
 F   4 1.00       0.000000000000
      0.8224083744D+02  0.7376010066D-01
      0.2617283330D+02  0.3169436029D+00
      0.9292756000D+01  0.5391979049D+00
      0.3098677430D+01  0.3752763034D+00
 F   1 1.00       0.000000000000
      0.2178438510D+01  0.1000000000D+01
 F   1 1.00       0.000000000000
      0.9490429900D+00  0.1000000000D+01
 G   1 1.00       0.000000000000
      0.1894063370D+01  0.1000000000D+01
 ****
      2 0
 S   5 1.00       0.000000000000
      0.1238401694D+04  0.5517365048D-02
      0.1862900499D+03  0.4108882856D-01
      0.4225117635D+02  0.1822538213D+00
      0.1167655793D+02  0.4682845944D+00
      0.3593050648D+01  0.4457581734D+00
 S   1 1.00       0.000000000000
      0.4024514736D+00  0.1000000000D+01
 S   1 1.00       0.000000000000
      0.1309018267D+00  0.1000000000D+01
 P   3 1.00       0.000000000000
      0.9468097062D+01  0.5688833201D-01
      0.2010354514D+01  0.3129405934D+00
      0.5477100471D+00  0.7606501651D+00
 P   1 1.00       0.000000000000
      0.1526861380D+00  0.1000000000D+01
 D   1 1.00       0.000000000000
      0.8000000000D+00  0.1000000000D+01
 ****
      3 0
 S   5 1.00       0.000000000000
      0.1712841585D+04 -0.5447799580D-02
      0.2576481268D+03 -0.4062717463D-01
      0.5845824585D+02 -0.1811196225D+00
      0.1619836791D+02 -0.4684397556D+00
      0.5005260081D+01 -0.4461684629D+00
 S   1 1.00       0.000000000000
      0.5873185657D+00  0.1000000000D+01
 S   1 1.00       0.000000000000
      0.1876459225D+00  0.1000000000D+01
 P   3 1.00       0.000000000000
      0.1357147023D+02 -0.5884811697D-01
      0.2925737287D+01 -0.3202462476D+00
      0.7992775075D+00 -0.7532822652D+00
 P   1 1.00       0.000000000000
      0.2195434803D+00  0.1000000000D+01
 D   1 1.00       0.000000000000
      0.1000000000D+01  0.1000000000D+01
 ****
      4 0
 S   5 1.00       0.000000000000
      0.1712841585D+04 -0.5447799580D-02
      0.2576481268D+03 -0.4062717463D-01
      0.5845824585D+02 -0.1811196225D+00
      0.1619836791D+02 -0.4684397556D+00
      0.5005260081D+01 -0.4461684629D+00
 S   1 1.00       0.000000000000
      0.5873185657D+00  0.1000000000D+01
 S   1 1.00       0.000000000000
      0.1876459225D+00  0.1000000000D+01
 P   3 1.00       0.000000000000
      0.1357147023D+02 -0.5884811697D-01
      0.2925737287D+01 -0.3202462476D+00
      0.7992775075D+00 -0.7532822652D+00
 P   1 1.00       0.000000000000
      0.2195434803D+00  0.1000000000D+01
 D   1 1.00       0.000000000000
      0.1000000000D+01  0.1000000000D+01
 ****
      5 0
 S   5 1.00       0.000000000000
      0.1238401694D+04  0.5517365048D-02
      0.1862900499D+03  0.4108882856D-01
      0.4225117635D+02  0.1822538213D+00
      0.1167655793D+02  0.4682845944D+00
      0.3593050648D+01  0.4457581734D+00
 S   1 1.00       0.000000000000
      0.4024514736D+00  0.1000000000D+01
 S   1 1.00       0.000000000000
      0.1309018267D+00  0.1000000000D+01
 P   3 1.00       0.000000000000
      0.9468097062D+01  0.5688833201D-01
      0.2010354514D+01  0.3129405934D+00
      0.5477100471D+00  0.7606501651D+00
 P   1 1.00       0.000000000000
      0.1526861380D+00  0.1000000000D+01
 D   1 1.00       0.000000000000
      0.8000000000D+00  0.1000000000D+01
 ****
      6 0
 S   5 1.00       0.000000000000
      0.1238401694D+04  0.5517365048D-02
      0.1862900499D+03  0.4108882856D-01
      0.4225117635D+02  0.1822538213D+00
      0.1167655793D+02  0.4682845944D+00
      0.3593050648D+01  0.4457581734D+00
 S   1 1.00       0.000000000000
      0.4024514736D+00  0.1000000000D+01
 S   1 1.00       0.000000000000
      0.1309018267D+00  0.1000000000D+01
 P   3 1.00       0.000000000000
      0.9468097062D+01  0.5688833201D-01
      0.2010354514D+01  0.3129405934D+00
      0.5477100471D+00  0.7606501651D+00
 P   1 1.00       0.000000000000
      0.1526861380D+00  0.1000000000D+01
 D   1 1.00       0.000000000000
      0.8000000000D+00  0.1000000000D+01
 ****
      7 0
 S   5 1.00       0.000000000000
      0.1238401694D+04  0.5517365048D-02
      0.1862900499D+03  0.4108882856D-01
      0.4225117635D+02  0.1822538213D+00
      0.1167655793D+02  0.4682845944D+00
      0.3593050648D+01  0.4457581734D+00
 S   1 1.00       0.000000000000
      0.4024514736D+00  0.1000000000D+01
 S   1 1.00       0.000000000000
      0.1309018267D+00  0.1000000000D+01
 P   3 1.00       0.000000000000
      0.9468097062D+01  0.5688833201D-01
      0.2010354514D+01  0.3129405934D+00
      0.5477100471D+00  0.7606501651D+00
 P   1 1.00       0.000000000000
      0.1526861380D+00  0.1000000000D+01
 D   1 1.00       0.000000000000
      0.8000000000D+00  0.1000000000D+01
 ****
      8 0
 S   5 1.00       0.000000000000
      0.1238401694D+04  0.5517365048D-02
      0.1862900499D+03  0.4108882856D-01
      0.4225117635D+02  0.1822538213D+00
      0.1167655793D+02  0.4682845944D+00
      0.3593050648D+01  0.4457581734D+00
 S   1 1.00       0.000000000000
      0.4024514736D+00  0.1000000000D+01
 S   1 1.00       0.000000000000
      0.1309018267D+00  0.1000000000D+01
 P   3 1.00       0.000000000000
      0.9468097062D+01  0.5688833201D-01
      0.2010354514D+01  0.3129405934D+00
      0.5477100471D+00  0.7606501651D+00
 P   1 1.00       0.000000000000
      0.1526861380D+00  0.1000000000D+01
 D   1 1.00       0.000000000000
      0.8000000000D+00  0.1000000000D+01
 ****
      9 0
 S   5 1.00       0.000000000000
      0.1238401694D+04  0.5517365048D-02
      0.1862900499D+03  0.4108882856D-01
      0.4225117635D+02  0.1822538213D+00
      0.1167655793D+02  0.4682845944D+00
      0.3593050648D+01  0.4457581734D+00
 S   1 1.00       0.000000000000
      0.4024514736D+00  0.1000000000D+01
 S   1 1.00       0.000000000000
      0.1309018267D+00  0.1000000000D+01
 P   3 1.00       0.000000000000
      0.9468097062D+01  0.5688833201D-01
      0.2010354514D+01  0.3129405934D+00
      0.5477100471D+00  0.7606501651D+00
 P   1 1.00       0.000000000000
      0.1526861380D+00  0.1000000000D+01
 D   1 1.00       0.000000000000
      0.8000000000D+00  0.1000000000D+01
 ****
     10 0
 S   5 1.00       0.000000000000
      0.1238401694D+04  0.5517365048D-02
      0.1862900499D+03  0.4108882856D-01
      0.4225117635D+02  0.1822538213D+00
      0.1167655793D+02  0.4682845944D+00
      0.3593050648D+01  0.4457581734D+00
 S   1 1.00       0.000000000000
      0.4024514736D+00  0.1000000000D+01
 S   1 1.00       0.000000000000
      0.1309018267D+00  0.1000000000D+01
 P   3 1.00       0.000000000000
      0.9468097062D+01  0.5688833201D-01
      0.2010354514D+01  0.3129405934D+00
      0.5477100471D+00  0.7606501651D+00
 P   1 1.00       0.000000000000
      0.1526861380D+00  0.1000000000D+01
 D   1 1.00       0.000000000000
      0.8000000000D+00  0.1000000000D+01
 ****
     11 0
 S   5 1.00       0.000000000000
      0.1238401694D+04  0.5517365048D-02
      0.1862900499D+03  0.4108882856D-01
      0.4225117635D+02  0.1822538213D+00
      0.1167655793D+02  0.4682845944D+00
      0.3593050648D+01  0.4457581734D+00
 S   1 1.00       0.000000000000
      0.4024514736D+00  0.1000000000D+01
 S   1 1.00       0.000000000000
      0.1309018267D+00  0.1000000000D+01
 P   3 1.00       0.000000000000
      0.9468097062D+01  0.5688833201D-01
      0.2010354514D+01  0.3129405934D+00
      0.5477100471D+00  0.7606501651D+00
 P   1 1.00       0.000000000000
      0.1526861380D+00  0.1000000000D+01
 D   1 1.00       0.000000000000
      0.8000000000D+00  0.1000000000D+01
 ****
     12 0
 S   5 1.00       0.000000000000
      0.1238401694D+04  0.5517365048D-02
      0.1862900499D+03  0.4108882856D-01
      0.4225117635D+02  0.1822538213D+00
      0.1167655793D+02  0.4682845944D+00
      0.3593050648D+01  0.4457581734D+00
 S   1 1.00       0.000000000000
      0.4024514736D+00  0.1000000000D+01
 S   1 1.00       0.000000000000
      0.1309018267D+00  0.1000000000D+01
 P   3 1.00       0.000000000000
      0.9468097062D+01  0.5688833201D-01
      0.2010354514D+01  0.3129405934D+00
      0.5477100471D+00  0.7606501651D+00
 P   1 1.00       0.000000000000
      0.1526861380D+00  0.1000000000D+01
 D   1 1.00       0.000000000000
      0.8000000000D+00  0.1000000000D+01
 ****
     13 0
 S   5 1.00       0.000000000000
      0.1238401694D+04  0.5517365048D-02
      0.1862900499D+03  0.4108882856D-01
      0.4225117635D+02  0.1822538213D+00
      0.1167655793D+02  0.4682845944D+00
      0.3593050648D+01  0.4457581734D+00
 S   1 1.00       0.000000000000
      0.4024514736D+00  0.1000000000D+01
 S   1 1.00       0.000000000000
      0.1309018267D+00  0.1000000000D+01
 P   3 1.00       0.000000000000
      0.9468097062D+01  0.5688833201D-01
      0.2010354514D+01  0.3129405934D+00
      0.5477100471D+00  0.7606501651D+00
 P   1 1.00       0.000000000000
      0.1526861380D+00  0.1000000000D+01
 D   1 1.00       0.000000000000
      0.8000000000D+00  0.1000000000D+01
 ****
     14 0
 S   5 1.00       0.000000000000
      0.1238401694D+04  0.5517365048D-02
      0.1862900499D+03  0.4108882856D-01
      0.4225117635D+02  0.1822538213D+00
      0.1167655793D+02  0.4682845944D+00
      0.3593050648D+01  0.4457581734D+00
 S   1 1.00       0.000000000000
      0.4024514736D+00  0.1000000000D+01
 S   1 1.00       0.000000000000
      0.1309018267D+00  0.1000000000D+01
 P   3 1.00       0.000000000000
      0.9468097062D+01  0.5688833201D-01
      0.2010354514D+01  0.3129405934D+00
      0.5477100471D+00  0.7606501651D+00
 P   1 1.00       0.000000000000
      0.1526861380D+00  0.1000000000D+01
 D   1 1.00       0.000000000000
      0.8000000000D+00  0.1000000000D+01
 ****
     15 0
 S   5 1.00       0.000000000000
      0.1238401694D+04  0.5517365048D-02
      0.1862900499D+03  0.4108882856D-01
      0.4225117635D+02  0.1822538213D+00
      0.1167655793D+02  0.4682845944D+00
      0.3593050648D+01  0.4457581734D+00
 S   1 1.00       0.000000000000
      0.4024514736D+00  0.1000000000D+01
 S   1 1.00       0.000000000000
      0.1309018267D+00  0.1000000000D+01
 P   3 1.00       0.000000000000
      0.9468097062D+01  0.5688833201D-01
      0.2010354514D+01  0.3129405934D+00
      0.5477100471D+00  0.7606501651D+00
 P   1 1.00       0.000000000000
      0.1526861380D+00  0.1000000000D+01
 D   1 1.00       0.000000000000
      0.8000000000D+00  0.1000000000D+01
 ****
     16 0
 S   5 1.00       0.000000000000
      0.1238401694D+04  0.5517365048D-02
      0.1862900499D+03  0.4108882856D-01
      0.4225117635D+02  0.1822538213D+00
      0.1167655793D+02  0.4682845944D+00
      0.3593050648D+01  0.4457581734D+00
 S   1 1.00       0.000000000000
      0.4024514736D+00  0.1000000000D+01
 S   1 1.00       0.000000000000
      0.1309018267D+00  0.1000000000D+01
 P   3 1.00       0.000000000000
      0.9468097062D+01  0.5688833201D-01
      0.2010354514D+01  0.3129405934D+00
      0.5477100471D+00  0.7606501651D+00
 P   1 1.00       0.000000000000
      0.1526861380D+00  0.1000000000D+01
 D   1 1.00       0.000000000000
      0.8000000000D+00  0.1000000000D+01
 ****
     17 0
 S   5 1.00       0.000000000000
      0.1238401694D+04  0.5517365048D-02
      0.1862900499D+03  0.4108882856D-01
      0.4225117635D+02  0.1822538213D+00
      0.1167655793D+02  0.4682845944D+00
      0.3593050648D+01  0.4457581734D+00
 S   1 1.00       0.000000000000
      0.4024514736D+00  0.1000000000D+01
 S   1 1.00       0.000000000000
      0.1309018267D+00  0.1000000000D+01
 P   3 1.00       0.000000000000
      0.9468097062D+01  0.5688833201D-01
      0.2010354514D+01  0.3129405934D+00
      0.5477100471D+00  0.7606501651D+00
 P   1 1.00       0.000000000000
      0.1526861380D+00  0.1000000000D+01
 D   1 1.00       0.000000000000
      0.8000000000D+00  0.1000000000D+01
 ****
     18 0
 S   5 1.00       0.000000000000
      0.1238401694D+04  0.5517365048D-02
      0.1862900499D+03  0.4108882856D-01
      0.4225117635D+02  0.1822538213D+00
      0.1167655793D+02  0.4682845944D+00
      0.3593050648D+01  0.4457581734D+00
 S   1 1.00       0.000000000000
      0.4024514736D+00  0.1000000000D+01
 S   1 1.00       0.000000000000
      0.1309018267D+00  0.1000000000D+01
 P   3 1.00       0.000000000000
      0.9468097062D+01  0.5688833201D-01
      0.2010354514D+01  0.3129405934D+00
      0.5477100471D+00  0.7606501651D+00
 P   1 1.00       0.000000000000
      0.1526861380D+00  0.1000000000D+01
 D   1 1.00       0.000000000000
      0.8000000000D+00  0.1000000000D+01
 ****
     19 0
 S   3 1.00       0.000000000000
      0.1301070100D+02  0.3348548481D-01
      0.1962257200D+01  0.2347218709D+00
      0.4445379600D+00  0.8137702853D+00
 S   1 1.00       0.000000000000
      0.1219496200D+00  0.1000000000D+01
 P   1 1.00       0.000000000000
      0.8000000000D+00  0.1000000000D+01
 ****
     20 0
 S   5 1.00       0.000000000000
      0.1238401694D+04  0.5517365048D-02
      0.1862900499D+03  0.4108882856D-01
      0.4225117635D+02  0.1822538213D+00
      0.1167655793D+02  0.4682845944D+00
      0.3593050648D+01  0.4457581734D+00
 S   1 1.00       0.000000000000
      0.4024514736D+00  0.1000000000D+01
 S   1 1.00       0.000000000000
      0.1309018267D+00  0.1000000000D+01
 P   3 1.00       0.000000000000
      0.9468097062D+01  0.5688833201D-01
      0.2010354514D+01  0.3129405934D+00
      0.5477100471D+00  0.7606501651D+00
 P   1 1.00       0.000000000000
      0.1526861380D+00  0.1000000000D+01
 D   1 1.00       0.000000000000
      0.8000000000D+00  0.1000000000D+01
 ****
     21 0
 S   5 1.00       0.000000000000
      0.1238401694D+04  0.5517365048D-02
      0.1862900499D+03  0.4108882856D-01
      0.4225117635D+02  0.1822538213D+00
      0.1167655793D+02  0.4682845944D+00
      0.3593050648D+01  0.4457581734D+00
 S   1 1.00       0.000000000000
      0.4024514736D+00  0.1000000000D+01
 S   1 1.00       0.000000000000
      0.1309018267D+00  0.1000000000D+01
 P   3 1.00       0.000000000000
      0.9468097062D+01  0.5688833201D-01
      0.2010354514D+01  0.3129405934D+00
      0.5477100471D+00  0.7606501651D+00
 P   1 1.00       0.000000000000
      0.1526861380D+00  0.1000000000D+01
 D   1 1.00       0.000000000000
      0.8000000000D+00  0.1000000000D+01
 ****
     22 0
 S   5 1.00       0.000000000000
      0.2894832599D+04 -0.5349321176D-02
      0.4354193912D+03 -0.3996773437D-01
      0.9884332887D+02 -0.1794126179D+00
      0.2748519800D+02 -0.4683246869D+00
      0.8540549817D+01 -0.4472416053D+00
 S   1 1.00       0.000000000000
      0.1065457804D+01  0.1000000000D+01
 S   1 1.00       0.000000000000
      0.3324734675D+00  0.1000000000D+01
 P   3 1.00       0.000000000000
      0.2269663392D+02 -0.6478214824D-01
      0.4987233926D+01 -0.3403578536D+00
      0.1349161395D+01 -0.7348581537D+00
 P   1 1.00       0.000000000000
      0.3482988198D+00  0.1000000000D+01
 D   1 1.00       0.000000000000
      0.1400000000D+01  0.1000000000D+01
 ****
     23 0
 S   5 1.00       0.000000000000
      0.2894832599D+04 -0.5349321176D-02
      0.4354193912D+03 -0.3996773437D-01
      0.9884332887D+02 -0.1794126179D+00
      0.2748519800D+02 -0.4683246869D+00
      0.8540549817D+01 -0.4472416053D+00
 S   1 1.00       0.000000000000
      0.1065457804D+01  0.1000000000D+01
 S   1 1.00       0.000000000000
      0.3324734675D+00  0.1000000000D+01
 P   3 1.00       0.000000000000
      0.2269663392D+02 -0.6478214824D-01
      0.4987233926D+01 -0.3403578536D+00
      0.1349161395D+01 -0.7348581537D+00
 P   1 1.00       0.000000000000
      0.3482988198D+00  0.1000000000D+01
 D   1 1.00       0.000000000000
      0.1400000000D+01  0.1000000000D+01
 ****
     24 0
 S   3 1.00       0.000000000000
      0.1301070100D+02  0.3348548481D-01
      0.1962257200D+01  0.2347218709D+00
      0.4445379600D+00  0.8137702853D+00
 S   1 1.00       0.000000000000
      0.1219496200D+00  0.1000000000D+01
 P   1 1.00       0.000000000000
      0.8000000000D+00  0.1000000000D+01
 ****
     25 0
 S   5 1.00       0.000000000000
      0.1238401694D+04  0.5517365048D-02
      0.1862900499D+03  0.4108882856D-01
      0.4225117635D+02  0.1822538213D+00
      0.1167655793D+02  0.4682845944D+00
      0.3593050648D+01  0.4457581734D+00
 S   1 1.00       0.000000000000
      0.4024514736D+00  0.1000000000D+01
 S   1 1.00       0.000000000000
      0.1309018267D+00  0.1000000000D+01
 P   3 1.00       0.000000000000
      0.9468097062D+01  0.5688833201D-01
      0.2010354514D+01  0.3129405934D+00
      0.5477100471D+00  0.7606501651D+00
 P   1 1.00       0.000000000000
      0.1526861380D+00  0.1000000000D+01
 D   1 1.00       0.000000000000
      0.8000000000D+00  0.1000000000D+01
 ****
     26 0
 S   3 1.00       0.000000000000
      0.1301070100D+02  0.3348548481D-01
      0.1962257200D+01  0.2347218709D+00
      0.4445379600D+00  0.8137702853D+00
 S   1 1.00       0.000000000000
      0.1219496200D+00  0.1000000000D+01
 P   1 1.00       0.000000000000
      0.8000000000D+00  0.1000000000D+01
 ****
     27 0
 S   3 1.00       0.000000000000
      0.1301070100D+02  0.3348548481D-01
      0.1962257200D+01  0.2347218709D+00
      0.4445379600D+00  0.8137702853D+00
 S   1 1.00       0.000000000000
      0.1219496200D+00  0.1000000000D+01
 P   1 1.00       0.000000000000
      0.8000000000D+00  0.1000000000D+01
 ****
     28 0
 S   5 1.00       0.000000000000
      0.1238401694D+04  0.5517365048D-02
      0.1862900499D+03  0.4108882856D-01
      0.4225117635D+02  0.1822538213D+00
      0.1167655793D+02  0.4682845944D+00
      0.3593050648D+01  0.4457581734D+00
 S   1 1.00       0.000000000000
      0.4024514736D+00  0.1000000000D+01
 S   1 1.00       0.000000000000
      0.1309018267D+00  0.1000000000D+01
 P   3 1.00       0.000000000000
      0.9468097062D+01  0.5688833201D-01
      0.2010354514D+01  0.3129405934D+00
      0.5477100471D+00  0.7606501651D+00
 P   1 1.00       0.000000000000
      0.1526861380D+00  0.1000000000D+01
 D   1 1.00       0.000000000000
      0.8000000000D+00  0.1000000000D+01
 ****
     29 0
 S   3 1.00       0.000000000000
      0.1301070100D+02  0.3348548481D-01
      0.1962257200D+01  0.2347218709D+00
      0.4445379600D+00  0.8137702853D+00
 S   1 1.00       0.000000000000
      0.1219496200D+00  0.1000000000D+01
 P   1 1.00       0.000000000000
      0.8000000000D+00  0.1000000000D+01
 ****
     30 0
 S   3 1.00       0.000000000000
      0.1301070100D+02  0.3348548481D-01
      0.1962257200D+01  0.2347218709D+00
      0.4445379600D+00  0.8137702853D+00
 S   1 1.00       0.000000000000
      0.1219496200D+00  0.1000000000D+01
 P   1 1.00       0.000000000000
      0.8000000000D+00  0.1000000000D+01
 ****
     31 0
 S   5 1.00       0.000000000000
      0.1238401694D+04  0.5517365048D-02
      0.1862900499D+03  0.4108882856D-01
      0.4225117635D+02  0.1822538213D+00
      0.1167655793D+02  0.4682845944D+00
      0.3593050648D+01  0.4457581734D+00
 S   1 1.00       0.000000000000
      0.4024514736D+00  0.1000000000D+01
 S   1 1.00       0.000000000000
      0.1309018267D+00  0.1000000000D+01
 P   3 1.00       0.000000000000
      0.9468097062D+01  0.5688833201D-01
      0.2010354514D+01  0.3129405934D+00
      0.5477100471D+00  0.7606501651D+00
 P   1 1.00       0.000000000000
      0.1526861380D+00  0.1000000000D+01
 D   1 1.00       0.000000000000
      0.8000000000D+00  0.1000000000D+01
 ****
     32 0
 S   5 1.00       0.000000000000
      0.1238401694D+04  0.5517365048D-02
      0.1862900499D+03  0.4108882856D-01
      0.4225117635D+02  0.1822538213D+00
      0.1167655793D+02  0.4682845944D+00
      0.3593050648D+01  0.4457581734D+00
 S   1 1.00       0.000000000000
      0.4024514736D+00  0.1000000000D+01
 S   1 1.00       0.000000000000
      0.1309018267D+00  0.1000000000D+01
 P   3 1.00       0.000000000000
      0.9468097062D+01  0.5688833201D-01
      0.2010354514D+01  0.3129405934D+00
      0.5477100471D+00  0.7606501651D+00
 P   1 1.00       0.000000000000
      0.1526861380D+00  0.1000000000D+01
 D   1 1.00       0.000000000000
      0.8000000000D+00  0.1000000000D+01
 ****
     33 0
 S   5 1.00       0.000000000000
      0.1238401694D+04  0.5517365048D-02
      0.1862900499D+03  0.4108882856D-01
      0.4225117635D+02  0.1822538213D+00
      0.1167655793D+02  0.4682845944D+00
      0.3593050648D+01  0.4457581734D+00
 S   1 1.00       0.000000000000
      0.4024514736D+00  0.1000000000D+01
 S   1 1.00       0.000000000000
      0.1309018267D+00  0.1000000000D+01
 P   3 1.00       0.000000000000
      0.9468097062D+01  0.5688833201D-01
      0.2010354514D+01  0.3129405934D+00
      0.5477100471D+00  0.7606501651D+00
 P   1 1.00       0.000000000000
      0.1526861380D+00  0.1000000000D+01
 D   1 1.00       0.000000000000
      0.8000000000D+00  0.1000000000D+01
 ****
     34 0
 S   5 1.00       0.000000000000
      0.1238401694D+04  0.5517365048D-02
      0.1862900499D+03  0.4108882856D-01
      0.4225117635D+02  0.1822538213D+00
      0.1167655793D+02  0.4682845944D+00
      0.3593050648D+01  0.4457581734D+00
 S   1 1.00       0.000000000000
      0.4024514736D+00  0.1000000000D+01
 S   1 1.00       0.000000000000
      0.1309018267D+00  0.1000000000D+01
 P   3 1.00       0.000000000000
      0.9468097062D+01  0.5688833201D-01
      0.2010354514D+01  0.3129405934D+00
      0.5477100471D+00  0.7606501651D+00
 P   1 1.00       0.000000000000
      0.1526861380D+00  0.1000000000D+01
 D   1 1.00       0.000000000000
      0.8000000000D+00  0.1000000000D+01
 ****
     35 0
 S   5 1.00       0.000000000000
      0.1238401694D+04  0.5517365048D-02
      0.1862900499D+03  0.4108882856D-01
      0.4225117635D+02  0.1822538213D+00
      0.1167655793D+02  0.4682845944D+00
      0.3593050648D+01  0.4457581734D+00
 S   1 1.00       0.000000000000
      0.4024514736D+00  0.1000000000D+01
 S   1 1.00       0.000000000000
      0.1309018267D+00  0.1000000000D+01
 P   3 1.00       0.000000000000
      0.9468097062D+01  0.5688833201D-01
      0.2010354514D+01  0.3129405934D+00
      0.5477100471D+00  0.7606501651D+00
 P   1 1.00       0.000000000000
      0.1526861380D+00  0.1000000000D+01
 D   1 1.00       0.000000000000
      0.8000000000D+00  0.1000000000D+01
 ****
     36 0
 S   5 1.00       0.000000000000
      0.1238401694D+04  0.5517365048D-02
      0.1862900499D+03  0.4108882856D-01
      0.4225117635D+02  0.1822538213D+00
      0.1167655793D+02  0.4682845944D+00
      0.3593050648D+01  0.4457581734D+00
 S   1 1.00       0.000000000000
      0.4024514736D+00  0.1000000000D+01
 S   1 1.00       0.000000000000
      0.1309018267D+00  0.1000000000D+01
 P   3 1.00       0.000000000000
      0.9468097062D+01  0.5688833201D-01
      0.2010354514D+01  0.3129405934D+00
      0.5477100471D+00  0.7606501651D+00
 P   1 1.00       0.000000000000
      0.1526861380D+00  0.1000000000D+01
 D   1 1.00       0.000000000000
      0.8000000000D+00  0.1000000000D+01
 ****
     37 0
 S   5 1.00       0.000000000000
      0.1238401694D+04  0.5517365048D-02
      0.1862900499D+03  0.4108882856D-01
      0.4225117635D+02  0.1822538213D+00
      0.1167655793D+02  0.4682845944D+00
      0.3593050648D+01  0.4457581734D+00
 S   1 1.00       0.000000000000
      0.4024514736D+00  0.1000000000D+01
 S   1 1.00       0.000000000000
      0.1309018267D+00  0.1000000000D+01
 P   3 1.00       0.000000000000
      0.9468097062D+01  0.5688833201D-01
      0.2010354514D+01  0.3129405934D+00
      0.5477100471D+00  0.7606501651D+00
 P   1 1.00       0.000000000000
      0.1526861380D+00  0.1000000000D+01
 D   1 1.00       0.000000000000
      0.8000000000D+00  0.1000000000D+01
 ****
     38 0
 S   5 1.00       0.000000000000
      0.1712841585D+04 -0.5447799580D-02
      0.2576481268D+03 -0.4062717463D-01
      0.5845824585D+02 -0.1811196225D+00
      0.1619836791D+02 -0.4684397556D+00
      0.5005260081D+01 -0.4461684629D+00
 S   1 1.00       0.000000000000
      0.5873185657D+00  0.1000000000D+01
 S   1 1.00       0.000000000000
      0.1876459225D+00  0.1000000000D+01
 P   3 1.00       0.000000000000
      0.1357147023D+02 -0.5884811697D-01
      0.2925737287D+01 -0.3202462476D+00
      0.7992775075D+00 -0.7532822652D+00
 P   1 1.00       0.000000000000
      0.2195434803D+00  0.1000000000D+01
 D   1 1.00       0.000000000000
      0.1000000000D+01  0.1000000000D+01
 ****
     39 0
 S   3 1.00       0.000000000000
      0.1301070100D+02  0.3348548481D-01
      0.1962257200D+01  0.2347218709D+00
      0.4445379600D+00  0.8137702853D+00
 S   1 1.00       0.000000000000
      0.1219496200D+00  0.1000000000D+01
 P   1 1.00       0.000000000000
      0.8000000000D+00  0.1000000000D+01
 ****
     40 0
 S   5 1.00       0.000000000000
      0.2894832599D+04 -0.5349321176D-02
      0.4354193912D+03 -0.3996773437D-01
      0.9884332887D+02 -0.1794126179D+00
      0.2748519800D+02 -0.4683246869D+00
      0.8540549817D+01 -0.4472416053D+00
 S   1 1.00       0.000000000000
      0.1065457804D+01  0.1000000000D+01
 S   1 1.00       0.000000000000
      0.3324734675D+00  0.1000000000D+01
 P   3 1.00       0.000000000000
      0.2269663392D+02 -0.6478214824D-01
      0.4987233926D+01 -0.3403578536D+00
      0.1349161395D+01 -0.7348581537D+00
 P   1 1.00       0.000000000000
      0.3482988198D+00  0.1000000000D+01
 D   1 1.00       0.000000000000
      0.1400000000D+01  0.1000000000D+01
 ****
     41 0
 S   5 1.00       0.000000000000
      0.2894832599D+04 -0.5349321176D-02
      0.4354193912D+03 -0.3996773437D-01
      0.9884332887D+02 -0.1794126179D+00
      0.2748519800D+02 -0.4683246869D+00
      0.8540549817D+01 -0.4472416053D+00
 S   1 1.00       0.000000000000
      0.1065457804D+01  0.1000000000D+01
 S   1 1.00       0.000000000000
      0.3324734675D+00  0.1000000000D+01
 P   3 1.00       0.000000000000
      0.2269663392D+02 -0.6478214824D-01
      0.4987233926D+01 -0.3403578536D+00
      0.1349161395D+01 -0.7348581537D+00
 P   1 1.00       0.000000000000
      0.3482988198D+00  0.1000000000D+01
 D   1 1.00       0.000000000000
      0.1400000000D+01  0.1000000000D+01
 ****
     42 0
 S   5 1.00       0.000000000000
      0.2894832599D+04 -0.5349321176D-02
      0.4354193912D+03 -0.3996773437D-01
      0.9884332887D+02 -0.1794126179D+00
      0.2748519800D+02 -0.4683246869D+00
      0.8540549817D+01 -0.4472416053D+00
 S   1 1.00       0.000000000000
      0.1065457804D+01  0.1000000000D+01
 S   1 1.00       0.000000000000
      0.3324734675D+00  0.1000000000D+01
 P   3 1.00       0.000000000000
      0.2269663392D+02 -0.6478214824D-01
      0.4987233926D+01 -0.3403578536D+00
      0.1349161395D+01 -0.7348581537D+00
 P   1 1.00       0.000000000000
      0.3482988198D+00  0.1000000000D+01
 D   1 1.00       0.000000000000
      0.1400000000D+01  0.1000000000D+01
 ****
     43 0
 S   5 1.00       0.000000000000
      0.2894832599D+04 -0.5349321176D-02
      0.4354193912D+03 -0.3996773437D-01
      0.9884332887D+02 -0.1794126179D+00
      0.2748519800D+02 -0.4683246869D+00
      0.8540549817D+01 -0.4472416053D+00
 S   1 1.00       0.000000000000
      0.1065457804D+01  0.1000000000D+01
 S   1 1.00       0.000000000000
      0.3324734675D+00  0.1000000000D+01
 P   3 1.00       0.000000000000
      0.2269663392D+02 -0.6478214824D-01
      0.4987233926D+01 -0.3403578536D+00
      0.1349161395D+01 -0.7348581537D+00
 P   1 1.00       0.000000000000
      0.3482988198D+00  0.1000000000D+01
 D   1 1.00       0.000000000000
      0.1400000000D+01  0.1000000000D+01
 ****
     44 0
 S   5 1.00       0.000000000000
      0.2894832599D+04 -0.5349321176D-02
      0.4354193912D+03 -0.3996773437D-01
      0.9884332887D+02 -0.1794126179D+00
      0.2748519800D+02 -0.4683246869D+00
      0.8540549817D+01 -0.4472416053D+00
 S   1 1.00       0.000000000000
      0.1065457804D+01  0.1000000000D+01
 S   1 1.00       0.000000000000
      0.3324734675D+00  0.1000000000D+01
 P   3 1.00       0.000000000000
      0.2269663392D+02 -0.6478214824D-01
      0.4987233926D+01 -0.3403578536D+00
      0.1349161395D+01 -0.7348581537D+00
 P   1 1.00       0.000000000000
      0.3482988198D+00  0.1000000000D+01
 D   1 1.00       0.000000000000
      0.1400000000D+01  0.1000000000D+01
 ****
     45 0
 S   5 1.00       0.000000000000
      0.2894832599D+04 -0.5349321176D-02
      0.4354193912D+03 -0.3996773437D-01
      0.9884332887D+02 -0.1794126179D+00
      0.2748519800D+02 -0.4683246869D+00
      0.8540549817D+01 -0.4472416053D+00
 S   1 1.00       0.000000000000
      0.1065457804D+01  0.1000000000D+01
 S   1 1.00       0.000000000000
      0.3324734675D+00  0.1000000000D+01
 P   3 1.00       0.000000000000
      0.2269663392D+02 -0.6478214824D-01
      0.4987233926D+01 -0.3403578536D+00
      0.1349161395D+01 -0.7348581537D+00
 P   1 1.00       0.000000000000
      0.3482988198D+00  0.1000000000D+01
 D   1 1.00       0.000000000000
      0.1400000000D+01  0.1000000000D+01
 ****
     46 0
 S   3 1.00       0.000000000000
      0.1301070100D+02  0.3348548481D-01
      0.1962257200D+01  0.2347218709D+00
      0.4445379600D+00  0.8137702853D+00
 S   1 1.00       0.000000000000
      0.1219496200D+00  0.1000000000D+01
 P   1 1.00       0.000000000000
      0.8000000000D+00  0.1000000000D+01
 ****
     47 0
 S   3 1.00       0.000000000000
      0.1301070100D+02  0.3348548481D-01
      0.1962257200D+01  0.2347218709D+00
      0.4445379600D+00  0.8137702853D+00
 S   1 1.00       0.000000000000
      0.1219496200D+00  0.1000000000D+01
 P   1 1.00       0.000000000000
      0.8000000000D+00  0.1000000000D+01
 ****
     48 0
 S   3 1.00       0.000000000000
      0.1301070100D+02  0.3348548481D-01
      0.1962257200D+01  0.2347218709D+00
      0.4445379600D+00  0.8137702853D+00
 S   1 1.00       0.000000000000
      0.1219496200D+00  0.1000000000D+01
 P   1 1.00       0.000000000000
      0.8000000000D+00  0.1000000000D+01
 ****
     49 0
 S   3 1.00       0.000000000000
      0.1301070100D+02  0.3348548481D-01
      0.1962257200D+01  0.2347218709D+00
      0.4445379600D+00  0.8137702853D+00
 S   1 1.00       0.000000000000
      0.1219496200D+00  0.1000000000D+01
 P   1 1.00       0.000000000000
      0.8000000000D+00  0.1000000000D+01
 ****
     50 0
 S   5 1.00       0.000000000000
      0.1238401694D+04  0.5517365048D-02
      0.1862900499D+03  0.4108882856D-01
      0.4225117635D+02  0.1822538213D+00
      0.1167655793D+02  0.4682845944D+00
      0.3593050648D+01  0.4457581734D+00
 S   1 1.00       0.000000000000
      0.4024514736D+00  0.1000000000D+01
 S   1 1.00       0.000000000000
      0.1309018267D+00  0.1000000000D+01
 P   3 1.00       0.000000000000
      0.9468097062D+01  0.5688833201D-01
      0.2010354514D+01  0.3129405934D+00
      0.5477100471D+00  0.7606501651D+00
 P   1 1.00       0.000000000000
      0.1526861380D+00  0.1000000000D+01
 D   1 1.00       0.000000000000
      0.8000000000D+00  0.1000000000D+01
 ****
     51 0
 S   5 1.00       0.000000000000
      0.1238401694D+04  0.5517365048D-02
      0.1862900499D+03  0.4108882856D-01
      0.4225117635D+02  0.1822538213D+00
      0.1167655793D+02  0.4682845944D+00
      0.3593050648D+01  0.4457581734D+00
 S   1 1.00       0.000000000000
      0.4024514736D+00  0.1000000000D+01
 S   1 1.00       0.000000000000
      0.1309018267D+00  0.1000000000D+01
 P   3 1.00       0.000000000000
      0.9468097062D+01  0.5688833201D-01
      0.2010354514D+01  0.3129405934D+00
      0.5477100471D+00  0.7606501651D+00
 P   1 1.00       0.000000000000
      0.1526861380D+00  0.1000000000D+01
 D   1 1.00       0.000000000000
      0.8000000000D+00  0.1000000000D+01
 ****
     52 0
 S   3 1.00       0.000000000000
      0.1301070100D+02  0.3348548481D-01
      0.1962257200D+01  0.2347218709D+00
      0.4445379600D+00  0.8137702853D+00
 S   1 1.00       0.000000000000
      0.1219496200D+00  0.1000000000D+01
 P   1 1.00       0.000000000000
      0.8000000000D+00  0.1000000000D+01
 ****
     53 0
 S   3 1.00       0.000000000000
      0.1301070100D+02  0.3348548481D-01
      0.1962257200D+01  0.2347218709D+00
      0.4445379600D+00  0.8137702853D+00
 S   1 1.00       0.000000000000
      0.1219496200D+00  0.1000000000D+01
 P   1 1.00       0.000000000000
      0.8000000000D+00  0.1000000000D+01
 ****
     54 0
 S   3 1.00       0.000000000000
      0.1301070100D+02  0.3348548481D-01
      0.1962257200D+01  0.2347218709D+00
      0.4445379600D+00  0.8137702853D+00
 S   1 1.00       0.000000000000
      0.1219496200D+00  0.1000000000D+01
 P   1 1.00       0.000000000000
      0.8000000000D+00  0.1000000000D+01
 ****
     55 0
 S   3 1.00       0.000000000000
      0.1301070100D+02  0.3348548481D-01
      0.1962257200D+01  0.2347218709D+00
      0.4445379600D+00  0.8137702853D+00
 S   1 1.00       0.000000000000
      0.1219496200D+00  0.1000000000D+01
 P   1 1.00       0.000000000000
      0.8000000000D+00  0.1000000000D+01
 ****
     56 0
 S   3 1.00       0.000000000000
      0.1301070100D+02  0.3348548481D-01
      0.1962257200D+01  0.2347218709D+00
      0.4445379600D+00  0.8137702853D+00
 S   1 1.00       0.000000000000
      0.1219496200D+00  0.1000000000D+01
 P   1 1.00       0.000000000000
      0.8000000000D+00  0.1000000000D+01
 ****
     57 0
 S   3 1.00       0.000000000000
      0.1301070100D+02  0.3348548481D-01
      0.1962257200D+01  0.2347218709D+00
      0.4445379600D+00  0.8137702853D+00
 S   1 1.00       0.000000000000
      0.1219496200D+00  0.1000000000D+01
 P   1 1.00       0.000000000000
      0.8000000000D+00  0.1000000000D+01
 ****

 There are   769 symmetry adapted cartesian basis functions of A   symmetry.
 There are   710 symmetry adapted basis functions of A   symmetry.
   710 basis functions,  1292 primitive gaussians,   769 cartesian basis functions
   178 alpha electrons      178 beta electrons
       nuclear repulsion energy      6655.8139884561 Hartrees.
 IExCor=  402 DFT=T Ex+Corr=B3LYP ExCW=0 ScaHFX=  0.200000
 ScaDFX=  0.800000  0.720000  1.000000  0.810000 ScalE2=  1.000000  1.000000
 IRadAn=      5 IRanWt=     -1 IRanGd=            0 ICorTp=0 IEmpDi=  4
 NAtoms=   57 NActive=   57 NUniq=   57 SFac= 1.00D+00 NAtFMM=   60 NAOKFM=F Big=F
 Integral buffers will be    131072 words long.
 Raffenetti 2 integral format.
 Two-electron integral symmetry is turned on.
 Force PCM accuracy= 1.00D-12.
 ------------------------------------------------------------------------------
 Polarizable Continuum Model (PCM)
 =================================
 Model                : PCM.
 Atomic radii         : UFF (Universal Force Field).
 Polarization charges : Total charges.
 Charge compensation  : None.
 Solution method      : On-the-fly selection.
 Cavity type          : Scaled VdW (van der Waals Surface) (Alpha=1.100).
 Cavity algorithm     : GePol (No added spheres)
                        Default sphere list used, NSphG=   57.
                        Lebedev-Laikov grids with approx.  5.0 points / Ang**2.
                        Smoothing algorithm: York/Karplus (Gamma=1.0000).
                        Polarization charges: spherical gaussians, with
                                              point-specific exponents (IZeta= 3).
                        Self-potential: point-specific (ISelfS= 7).
                        Self-field    : sphere-specific E.n sum rule (ISelfD= 2).
 Solvent              : n,n-DiMethylFormamide, Eps=  37.219000 Eps(inf)=   2.046330
 ------------------------------------------------------------------------------
 GePol: Number of generator spheres                  =      57
 GePol: Total number of spheres                      =      57
 GePol: Number of exposed spheres                    =      57 (100.00%)
 GePol: Number of points                             =    4625
 GePol: Average weight of points                     =       0.13
 GePol: Minimum weight of points                     =   0.84D-10
 GePol: Maximum weight of points                     =    0.21838
 GePol: Number of points with low weight             =     240
 GePol: Fraction of low-weight points (<1% of avg)   =       5.19%
 GePol: Cavity surface area                          =    588.921 Ang**2
 GePol: Cavity volume                                =    659.404 Ang**3
 Leave Link  301 at Wed Apr 12 12:49:15 2023, MaxMem=  8053063680 cpu:               0.6 elap:               0.1
 (Enter /scr/programas/g16/l302.exe)
 NPDir=0 NMtPBC=     1 NCelOv=     1 NCel=       1 NClECP=     1 NCelD=      1
         NCelK=      1 NCelE2=     1 NClLst=     1 CellRange=     0.0.
 One-electron integrals computed using PRISM.
 One-electron integral symmetry used in STVInt
 NBasis=   710 RedAO= T EigKep=  2.08D-04  NBF=   710
 NBsUse=   710 1.00D-06 EigRej= -1.00D+00 NBFU=   710
 Precomputing XC quadrature grid using
 IXCGrd= 4 IRadAn=           5 IRanWt=          -1 IRanGd=           0 AccXCQ= 1.00D-12.
 Defaulting to unpruned grid for atomic number  78.
 Generated NRdTot=       0 NPtTot=           0 NUsed=           0 NTot=          32
 NSgBfM=   712   712   712   712   712 MxSgAt=    57 MxSgA2=    57.
 Leave Link  302 at Wed Apr 12 12:49:17 2023, MaxMem=  8053063680 cpu:              16.4 elap:               1.4
 (Enter /scr/programas/g16/l303.exe)
 DipDrv:  MaxL=1.
 Leave Link  303 at Wed Apr 12 12:49:17 2023, MaxMem=  8053063680 cpu:               1.2 elap:               0.1
 (Enter /scr/programas/g16/l401.exe)
 ExpMin= 3.34D-02 ExpMax= 1.33D+07 ExpMxC= 1.85D+05 IAcc=4 IRadAn=    199590 AccDes= 0.00D+00
 Harris functional with IExCor=  402 and IRadAn=  199590 diagonalized for initial guess.
 HarFok:  IExCor=  402 AccDes= 0.00D+00 IRadAn=    199590 IDoV= 1 UseB2=F ITyADJ=14
 ICtDFT=  3500011 ScaDFX=  1.000000  1.000000  1.000000  1.000000
 FoFCou: FMM=F IPFlag=           0 FMFlag=      100000 FMFlg1=           0
         NFxFlg=           0 DoJE=T BraDBF=F KetDBF=T FulRan=T
         wScrn=  0.000000 ICntrl=       500 IOpCl=  0 I1Cent=   200000004 NGrid=           0
         NMat0=    1 NMatS0=      1 NMatT0=    0 NMatD0=    1 NMtDS0=    0 NMtDT0=    0
 Petite list used in FoFCou.
 Harris En= -19367.5268647497    
 JPrj=0 DoOrth=F DoCkMO=F.
 Leave Link  401 at Wed Apr 12 12:49:34 2023, MaxMem=  8053063680 cpu:             198.3 elap:              16.6
 (Enter /scr/programas/g16/l502.exe)
 Integral symmetry usage will be decided dynamically.
 Closed shell SCF:
 Using DIIS extrapolation, IDIIS=  1040.
 NGot=  8053063680 LenX=  8051862854 LenY=  8051270724
 Requested convergence on RMS density matrix=1.00D-08 within 200 cycles.
 Requested convergence on MAX density matrix=1.00D-06.
 Requested convergence on             energy=1.00D-06.
 No special actions if energy rises.
 Fock matrices will be formed incrementally for  20 cycles.

 Cycle   1  Pass 1  IDiag  1:
 FoFJK:  IHMeth= 1 ICntrl=       0 DoSepK=F KAlg= 0 I1Cent=           0 FoldK=F
 IRaf= 630000000 NMat=       1 IRICut=       1 DoRegI=T DoRafI=F ISym2E= 0 IDoP0=0 IntGTp=1.
 FoFCou: FMM=F IPFlag=           0 FMFlag=      100000 FMFlg1=           0
         NFxFlg=           0 DoJE=F BraDBF=F KetDBF=F FulRan=T
         wScrn=  0.000000 ICntrl=         0 IOpCl=  0 I1Cent=           0 NGrid=           0
         NMat0=    1 NMatS0=      1 NMatT0=    0 NMatD0=    1 NMtDS0=    0 NMtDT0=    0
 Symmetry not used in FoFCou.
 Defaulting to unpruned grid for atomic number  78.
 Defaulting to unpruned grid for atomic number  78.
 Defaulting to unpruned grid for atomic number  78.
 Defaulting to unpruned grid for atomic number  78.
 Defaulting to unpruned grid for atomic number  78.
 Defaulting to unpruned grid for atomic number  78.
 Defaulting to unpruned grid for atomic number  78.
 Defaulting to unpruned grid for atomic number  78.
 Defaulting to unpruned grid for atomic number  78.
 Defaulting to unpruned grid for atomic number  78.
 Defaulting to unpruned grid for atomic number  78.
 Defaulting to unpruned grid for atomic number  78.
 Inv3:  Mode=1 IEnd=    64171875.
 Iteration    1 A*A^-1 deviation from unit magnitude is 1.28D-14 for   3106.
 Iteration    1 A*A^-1 deviation from orthogonality  is 8.01D-15 for   2577    597.
 Iteration    1 A^-1*A deviation from unit magnitude is 1.28D-14 for   3106.
 Iteration    1 A^-1*A deviation from orthogonality  is 1.02D-14 for   2401   2305.
 E= -19348.1328117541    
 DIIS: error= 2.16D+00 at cycle   1 NSaved=   1.
 NSaved= 1 IEnMin= 1 EnMin= -19348.1328117541     IErMin= 1 ErrMin= 2.16D+00
 ErrMax= 2.16D+00  0.00D+00 EMaxC= 1.00D-01 BMatC= 1.41D+02 BMatP= 1.41D+02
 IDIUse=3 WtCom= 0.00D+00 WtEn= 1.00D+00
 Coeff-Com:  0.100D+01
 Coeff-En:   0.100D+01
 Coeff:      0.100D+01
 Gap=     0.119 Goal=   None    Shift=    0.000
 GapD=    0.119 DampG=1.000 DampE=0.125 DampFc=0.1250 IDamp=-1.
 Damping current iteration by 1.25D-01
 RMSDP=3.44D-02 MaxDP=6.07D+00              OVMax= 8.85D-01

 Cycle   2  Pass 1  IDiag  1:
 RMSU=  4.30D-03    CP:  1.01D+00
 E= -19350.2420395678     Delta-E=       -2.109227813758 Rises=F Damp=T
 DIIS: error= 1.89D+00 at cycle   2 NSaved=   2.
 NSaved= 2 IEnMin= 2 EnMin= -19350.2420395678     IErMin= 2 ErrMin= 1.89D+00
 ErrMax= 1.89D+00  0.00D+00 EMaxC= 1.00D-01 BMatC= 1.01D+02 BMatP= 1.41D+02
 IDIUse=3 WtCom= 0.00D+00 WtEn= 1.00D+00
 Coeff-Com: -0.436D+01 0.536D+01
 Coeff-En:   0.000D+00 0.100D+01
 Coeff:      0.000D+00 0.100D+01
 Gap=     0.164 Goal=   None    Shift=    0.000
 RMSDP=1.03D-02 MaxDP=1.97D+00 DE=-2.11D+00 OVMax= 1.00D+00

 Cycle   3  Pass 1  IDiag  1:
 RMSU=  7.02D-03    CP:  1.04D+00  2.75D+00
 E= -19346.1092714402     Delta-E=        4.132768127645 Rises=F Damp=F
 DIIS: error= 2.86D-01 at cycle   3 NSaved=   3.
 NSaved= 3 IEnMin= 2 EnMin= -19350.2420395678     IErMin= 3 ErrMin= 2.86D-01
 ErrMax= 2.86D-01  0.00D+00 EMaxC= 1.00D-01 BMatC= 2.04D+01 BMatP= 1.01D+02
 IDIUse=3 WtCom= 0.00D+00 WtEn= 1.00D+00
 EnCoef did   100 forward-backward iterations
 Coeff-Com:  0.102D+00 0.979D-01 0.800D+00
 Coeff-En:   0.521D+00 0.286D-01 0.450D+00
 Coeff:      0.521D+00 0.286D-01 0.450D+00
 Gap=     0.045 Goal=   None    Shift=    0.000
 RMSDP=1.22D-02 MaxDP=2.10D+00 DE= 4.13D+00 OVMax= 9.61D-01

 Cycle   4  Pass 1  IDiag  1:
 RMSU=  3.31D-03    CP:  9.92D-01  2.58D-01  3.19D-01
 E= -19355.0733470064     Delta-E=       -8.964075566197 Rises=F Damp=F
 DIIS: error= 3.59D-02 at cycle   4 NSaved=   4.
 NSaved= 4 IEnMin= 4 EnMin= -19355.0733470064     IErMin= 4 ErrMin= 3.59D-02
 ErrMax= 3.59D-02  0.00D+00 EMaxC= 1.00D-01 BMatC= 5.77D-01 BMatP= 2.04D+01
 IDIUse=3 WtCom= 6.41D-01 WtEn= 3.59D-01
 Coeff-Com:  0.252D+00-0.278D+00-0.460D-01 0.107D+01
 Coeff-En:   0.224D-01 0.000D+00 0.000D+00 0.978D+00
 Coeff:      0.170D+00-0.178D+00-0.295D-01 0.104D+01
 Gap=     0.015 Goal=   None    Shift=    0.000
 RMSDP=3.35D-03 MaxDP=2.78D-01 DE=-8.96D+00 OVMax= 7.84D-01

 Cycle   5  Pass 1  IDiag  1:
 RMSU=  2.95D-03    CP:  9.92D-01  1.71D-01  1.78D-01  6.47D-01
 E= -19353.6264841390     Delta-E=        1.446862867349 Rises=F Damp=F
 DIIS: error= 5.11D-02 at cycle   5 NSaved=   5.
 NSaved= 5 IEnMin= 4 EnMin= -19355.0733470064     IErMin= 4 ErrMin= 3.59D-02
 ErrMax= 5.11D-02  0.00D+00 EMaxC= 1.00D-01 BMatC= 1.92D+00 BMatP= 5.77D-01
 IDIUse=2 WtCom= 0.00D+00 WtEn= 1.00D+00
 Coeff-En:   0.000D+00 0.000D+00 0.000D+00 0.783D+00 0.217D+00
 Coeff:      0.000D+00 0.000D+00 0.000D+00 0.783D+00 0.217D+00
 Gap=     0.041 Goal=   None    Shift=    0.000
 RMSDP=2.14D-03 MaxDP=2.11D-01 DE= 1.45D+00 OVMax= 6.78D-01

 Cycle   6  Pass 1  IDiag  1:
 RMSU=  1.38D-03    CP:  9.93D-01  9.82D-02  1.70D-01  8.07D-01  4.85D-01
 E= -19355.0132883288     Delta-E=       -1.386804189766 Rises=F Damp=F
 DIIS: error= 4.95D-02 at cycle   6 NSaved=   6.
 NSaved= 6 IEnMin= 4 EnMin= -19355.0733470064     IErMin= 4 ErrMin= 3.59D-02
 ErrMax= 4.95D-02  0.00D+00 EMaxC= 1.00D-01 BMatC= 7.75D-01 BMatP= 5.77D-01
 IDIUse=2 WtCom= 0.00D+00 WtEn= 1.00D+00
 Coeff-En:   0.000D+00 0.000D+00 0.000D+00 0.529D+00 0.000D+00 0.471D+00
 Coeff:      0.000D+00 0.000D+00 0.000D+00 0.529D+00 0.000D+00 0.471D+00
 Gap=     0.181 Goal=   None    Shift=    0.000
 RMSDP=1.85D-03 MaxDP=1.60D-01 DE=-1.39D+00 OVMax= 2.31D-01

 Cycle   7  Pass 1  IDiag  1:
 RMSU=  8.60D-04    CP:  9.91D-01  2.02D-01  2.79D-01  9.17D-01  3.48D-01
                    CP:  8.63D-02
 E= -19355.2892528175     Delta-E=       -0.275964488734 Rises=F Damp=F
 DIIS: error= 1.82D-02 at cycle   7 NSaved=   7.
 NSaved= 7 IEnMin= 7 EnMin= -19355.2892528175     IErMin= 7 ErrMin= 1.82D-02
 ErrMax= 1.82D-02  0.00D+00 EMaxC= 1.00D-01 BMatC= 1.87D-01 BMatP= 5.77D-01
 IDIUse=3 WtCom= 8.18D-01 WtEn= 1.82D-01
 EnCoef did     5 forward-backward iterations
 Coeff-Com: -0.421D-01 0.491D-01-0.160D-01 0.311D+00-0.286D-01 0.329D+00
 Coeff-Com:  0.397D+00
 Coeff-En:   0.000D+00 0.000D+00 0.000D+00 0.252D+00 0.000D+00 0.268D+00
 Coeff-En:   0.479D+00
 Coeff:     -0.345D-01 0.402D-01-0.131D-01 0.300D+00-0.234D-01 0.318D+00
 Coeff:      0.412D+00
 Gap=     0.091 Goal=   None    Shift=    0.000
 RMSDP=8.95D-04 MaxDP=5.40D-02 DE=-2.76D-01 OVMax= 1.04D-01

 Cycle   8  Pass 1  IDiag  1:
 RMSU=  3.01D-04    CP:  9.92D-01  1.41D-01  2.36D-01  9.51D-01  2.95D-01
                    CP:  4.44D-01  3.98D-01
 E= -19355.4536775161     Delta-E=       -0.164424698516 Rises=F Damp=F
 DIIS: error= 4.09D-03 at cycle   8 NSaved=   8.
 NSaved= 8 IEnMin= 8 EnMin= -19355.4536775161     IErMin= 8 ErrMin= 4.09D-03
 ErrMax= 4.09D-03  0.00D+00 EMaxC= 1.00D-01 BMatC= 5.67D-03 BMatP= 1.87D-01
 IDIUse=3 WtCom= 9.59D-01 WtEn= 4.09D-02
 Coeff-Com: -0.246D-01 0.283D-01-0.458D-02 0.568D-01-0.225D-01 0.124D+00
 Coeff-Com:  0.198D+00 0.645D+00
 Coeff-En:   0.000D+00 0.000D+00 0.000D+00 0.000D+00 0.000D+00 0.000D+00
 Coeff-En:   0.000D+00 0.100D+01
 Coeff:     -0.236D-01 0.271D-01-0.439D-02 0.545D-01-0.216D-01 0.119D+00
 Coeff:      0.190D+00 0.659D+00
 Gap=     0.095 Goal=   None    Shift=    0.000
 RMSDP=1.66D-04 MaxDP=1.57D-02 DE=-1.64D-01 OVMax= 2.87D-02

 Cycle   9  Pass 1  IDiag  1:
 RMSU=  1.32D-04    CP:  9.92D-01  1.47D-01  2.40D-01  9.45D-01  3.05D-01
                    CP:  4.24D-01  4.55D-01  7.75D-01
 E= -19355.4576551928     Delta-E=       -0.003977676715 Rises=F Damp=F
 DIIS: error= 2.72D-03 at cycle   9 NSaved=   9.
 NSaved= 9 IEnMin= 9 EnMin= -19355.4576551928     IErMin= 9 ErrMin= 2.72D-03
 ErrMax= 2.72D-03  0.00D+00 EMaxC= 1.00D-01 BMatC= 1.82D-03 BMatP= 5.67D-03
 IDIUse=3 WtCom= 9.73D-01 WtEn= 2.72D-02
 Coeff-Com: -0.477D-02 0.540D-02-0.173D-03-0.531D-02-0.169D-02 0.205D-01
 Coeff-Com:  0.369D-01 0.417D+00 0.533D+00
 Coeff-En:   0.000D+00 0.000D+00 0.000D+00 0.000D+00 0.000D+00 0.000D+00
 Coeff-En:   0.000D+00 0.265D+00 0.735D+00
 Coeff:     -0.464D-02 0.525D-02-0.168D-03-0.517D-02-0.165D-02 0.200D-01
 Coeff:      0.359D-01 0.412D+00 0.538D+00
 Gap=     0.093 Goal=   None    Shift=    0.000
 RMSDP=8.74D-05 MaxDP=8.10D-03 DE=-3.98D-03 OVMax= 1.52D-02

 Cycle  10  Pass 1  IDiag  1:
 RMSU=  4.91D-05    CP:  9.92D-01  1.43D-01  2.37D-01  9.46D-01  3.09D-01
                    CP:  4.44D-01  4.36D-01  8.61D-01  6.05D-01
 E= -19355.4592075272     Delta-E=       -0.001552334455 Rises=F Damp=F
 DIIS: error= 9.20D-04 at cycle  10 NSaved=  10.
 NSaved=10 IEnMin=10 EnMin= -19355.4592075272     IErMin=10 ErrMin= 9.20D-04
 ErrMax= 9.20D-04  0.00D+00 EMaxC= 1.00D-01 BMatC= 2.51D-04 BMatP= 1.82D-03
 IDIUse=3 WtCom= 9.91D-01 WtEn= 9.20D-03
 Coeff-Com: -0.129D-02 0.143D-02 0.298D-03-0.981D-02 0.728D-03 0.124D-03
 Coeff-Com:  0.418D-02 0.205D+00 0.356D+00 0.444D+00
 Coeff-En:   0.000D+00 0.000D+00 0.000D+00 0.000D+00 0.000D+00 0.000D+00
 Coeff-En:   0.000D+00 0.000D+00 0.105D+00 0.895D+00
 Coeff:     -0.128D-02 0.142D-02 0.295D-03-0.972D-02 0.721D-03 0.123D-03
 Coeff:      0.415D-02 0.203D+00 0.354D+00 0.448D+00
 Gap=     0.092 Goal=   None    Shift=    0.000
 RMSDP=2.74D-05 MaxDP=2.28D-03 DE=-1.55D-03 OVMax= 4.55D-03

 Cycle  11  Pass 1  IDiag  1:
 RMSU=  1.28D-05    CP:  9.92D-01  1.43D-01  2.37D-01  9.46D-01  3.08D-01
                    CP:  4.44D-01  4.38D-01  8.75D-01  6.66D-01  5.46D-01
 E= -19355.4594466875     Delta-E=       -0.000239160283 Rises=F Damp=F
 DIIS: error= 1.53D-04 at cycle  11 NSaved=  11.
 NSaved=11 IEnMin=11 EnMin= -19355.4594466875     IErMin=11 ErrMin= 1.53D-04
 ErrMax= 1.53D-04  0.00D+00 EMaxC= 1.00D-01 BMatC= 1.28D-05 BMatP= 2.51D-04
 IDIUse=3 WtCom= 9.98D-01 WtEn= 1.53D-03
 Coeff-Com: -0.413D-03 0.455D-03 0.191D-03-0.556D-02 0.638D-03-0.183D-02
 Coeff-Com:  0.121D-02 0.922D-01 0.166D+00 0.249D+00 0.498D+00
 Coeff-En:   0.000D+00 0.000D+00 0.000D+00 0.000D+00 0.000D+00 0.000D+00
 Coeff-En:   0.000D+00 0.000D+00 0.000D+00 0.000D+00 0.100D+01
 Coeff:     -0.412D-03 0.454D-03 0.191D-03-0.555D-02 0.637D-03-0.183D-02
 Coeff:      0.121D-02 0.920D-01 0.165D+00 0.249D+00 0.499D+00
 Gap=     0.091 Goal=   None    Shift=    0.000
 RMSDP=7.34D-06 MaxDP=4.22D-04 DE=-2.39D-04 OVMax= 8.62D-04

 Cycle  12  Pass 1  IDiag  1:
 RMSU=  5.22D-06    CP:  9.92D-01  1.43D-01  2.37D-01  9.46D-01  3.09D-01
                    CP:  4.43D-01  4.41D-01  8.75D-01  6.62D-01  5.89D-01
                    CP:  7.81D-01
 E= -19355.4594580819     Delta-E=       -0.000011394361 Rises=F Damp=F
 DIIS: error= 7.52D-05 at cycle  12 NSaved=  12.
 NSaved=12 IEnMin=12 EnMin= -19355.4594580819     IErMin=12 ErrMin= 7.52D-05
 ErrMax= 7.52D-05  0.00D+00 EMaxC= 1.00D-01 BMatC= 1.84D-06 BMatP= 1.28D-05
 IDIUse=1 WtCom= 1.00D+00 WtEn= 0.00D+00
 Coeff-Com:  0.388D-04-0.500D-04 0.553D-04-0.214D-02 0.402D-04-0.119D-02
 Coeff-Com:  0.129D-02 0.242D-01 0.395D-01 0.665D-01 0.289D+00 0.583D+00
 Coeff:      0.388D-04-0.500D-04 0.553D-04-0.214D-02 0.402D-04-0.119D-02
 Coeff:      0.129D-02 0.242D-01 0.395D-01 0.665D-01 0.289D+00 0.583D+00
 Gap=     0.091 Goal=   None    Shift=    0.000
 RMSDP=2.88D-06 MaxDP=2.44D-04 DE=-1.14D-05 OVMax= 4.99D-04

 Cycle  13  Pass 1  IDiag  1:
 RMSU=  2.01D-06    CP:  9.92D-01  1.43D-01  2.37D-01  9.46D-01  3.09D-01
                    CP:  4.42D-01  4.42D-01  8.76D-01  6.65D-01  5.89D-01
                    CP:  8.20D-01  7.86D-01
 E= -19355.4594598415     Delta-E=       -0.000001759647 Rises=F Damp=F
 DIIS: error= 1.24D-05 at cycle  13 NSaved=  13.
 NSaved=13 IEnMin=13 EnMin= -19355.4594598415     IErMin=13 ErrMin= 1.24D-05
 ErrMax= 1.24D-05  0.00D+00 EMaxC= 1.00D-01 BMatC= 1.09D-07 BMatP= 1.84D-06
 IDIUse=1 WtCom= 1.00D+00 WtEn= 0.00D+00
 Coeff-Com:  0.312D-04-0.365D-04 0.104D-04-0.392D-03-0.204D-04-0.350D-03
 Coeff-Com:  0.229D-03-0.339D-03-0.272D-02-0.274D-02 0.741D-01 0.255D+00
 Coeff-Com:  0.678D+00
 Coeff:      0.312D-04-0.365D-04 0.104D-04-0.392D-03-0.204D-04-0.350D-03
 Coeff:      0.229D-03-0.339D-03-0.272D-02-0.274D-02 0.741D-01 0.255D+00
 Coeff:      0.678D+00
 Gap=     0.091 Goal=   None    Shift=    0.000
 RMSDP=8.42D-07 MaxDP=7.30D-05 DE=-1.76D-06 OVMax= 2.09D-04

 Cycle  14  Pass 1  IDiag  1:
 RMSU=  5.82D-07    CP:  9.92D-01  1.43D-01  2.37D-01  9.46D-01  3.09D-01
                    CP:  4.42D-01  4.42D-01  8.76D-01  6.65D-01  5.90D-01
                    CP:  8.45D-01  8.59D-01  8.97D-01
 E= -19355.4594599512     Delta-E=       -0.000000109678 Rises=F Damp=F
[...]
 vector components x,y,z.  Values do not include the 1/n! factor of 1/2.
 (esu units = statvolt**-1 cm**4 , SI units = C**3 m**3 J**-2)
 Beta(0;0,0):
               (au)            (10**-30 esu)      (10**-50 SI)
   || (z)    -0.874575D+02     -0.755565D+00     -0.280420D+00
   _|_(z)    -0.291525D+02     -0.251855D+00     -0.934735D-01
   x          0.757436D+05      0.654366D+03      0.242861D+03
   y         -0.244196D+03     -0.210966D+01     -0.782981D+00
   z         -0.437288D+03     -0.377782D+01     -0.140210D+01
   ||         0.151490D+05      0.130876D+03      0.485733D+02
   xxx        0.248877D+05      0.215010D+03      0.797989D+02
   xxy       -0.859408D+02     -0.742461D+00     -0.275557D+00
   yxy        0.447079D+03      0.386241D+01      0.143350D+01
   yyy        0.555787D+01      0.480156D-01      0.178205D-01
   xxz       -0.910120D+02     -0.786273D+00     -0.291817D+00
   yxz       -0.205618D+02     -0.177638D+00     -0.659286D-01
   yyz       -0.719608D+02     -0.621685D+00     -0.230732D+00
   zxz       -0.868876D+02     -0.750641D+00     -0.278593D+00
   zyz       -0.101582D+01     -0.877590D-02     -0.325709D-02
   zzz        0.172103D+02      0.148683D+00      0.551824D-01
 Beta(-w;w,0) w= 1907.0nm:
                  (au)         (10**-30 esu)      (10**-50 SI)
   || (z)    -0.834138D+02     -0.720630D+00     -0.267455D+00
   _|_(z)    -0.184078D+02     -0.159029D+00     -0.590221D-01
   x          0.699810D+05      0.604581D+03      0.224384D+03
   y         -0.227660D+03     -0.196681D+01     -0.729960D+00
   z         -0.417069D+03     -0.360315D+01     -0.133727D+01
   ||         0.139965D+05      0.120919D+03      0.448779D+02
   xxx        0.226279D+05      0.195488D+03      0.725533D+02
   yxx       -0.741504D+02     -0.640602D+00     -0.237753D+00
   yyx        0.656131D+03      0.566846D+01      0.210379D+01
   zxx       -0.105351D+03     -0.910154D+00     -0.337794D+00
   zyx       -0.138276D+02     -0.119459D+00     -0.443361D-01
   zzx       -0.678132D+02     -0.585854D+00     -0.217434D+00
   xxy       -0.744857D+02     -0.643499D+00     -0.238828D+00
   yxy        0.840404D+03      0.726043D+01      0.269464D+01
   yyy       -0.933067D+00     -0.806097D-02     -0.299175D-02
   zxy       -0.133440D+02     -0.115282D+00     -0.427858D-01
   zyy       -0.561834D+02     -0.485381D+00     -0.180144D+00
   zzy       -0.727520D+00     -0.628521D-02     -0.233269D-02
   xxz       -0.814053D+02     -0.703279D+00     -0.261015D+00
   yxz       -0.133686D+02     -0.115494D+00     -0.428645D-01
   yyz       -0.519390D+02     -0.448713D+00     -0.166535D+00
   zxz       -0.859533D+02     -0.742570D+00     -0.275597D+00
   zyz       -0.673320D+00     -0.581696D-02     -0.215891D-02
   zzz        0.131150D+02      0.113303D+00      0.420515D-01
 Beta(-2w;w,w) w= 1907.0nm:
                  (au)         (10**-30 esu)      (10**-50 SI)
   || (z)    -0.108783D+03     -0.939798D+00     -0.348797D+00
   _|_(z)    -0.417790D+02     -0.360938D+00     -0.133958D+00
   x          0.952246D+05      0.822666D+03      0.305324D+03
   y         -0.320368D+03     -0.276773D+01     -0.102721D+01
   z         -0.543914D+03     -0.469899D+01     -0.174398D+01
   ||         0.190453D+05      0.164537D+03      0.610662D+02
   xxx        0.300307D+05      0.259442D+03      0.962893D+02
   yxx       -0.937403D+02     -0.809843D+00     -0.300565D+00
   zxx       -0.149071D+03     -0.128785D+01     -0.477974D+00
   xyx       -0.933957D+02     -0.806866D+00     -0.299461D+00
   yyx        0.179796D+04      0.155330D+02      0.576490D+01
   zyx       -0.744235D+01     -0.642961D-01     -0.238629D-01
   xyy        0.178155D+04      0.153912D+02      0.571228D+01
   yyy       -0.126685D+02     -0.109446D+00     -0.406197D-01
   zyy       -0.551737D+02     -0.476658D+00     -0.176907D+00
   xzx       -0.134244D+03     -0.115976D+01     -0.430434D+00
   yzx       -0.803558D+01     -0.694211D-01     -0.257650D-01
   zzx       -0.766277D+02     -0.662003D+00     -0.245696D+00
   xzy       -0.871742D+01     -0.753118D-01     -0.279512D-01
   yzy       -0.534464D+02     -0.461736D+00     -0.171369D+00
   zzy       -0.618637D+00     -0.534454D-02     -0.198357D-02
   xzz       -0.917326D+02     -0.792498D+00     -0.294128D+00
   yzz       -0.593236D+00     -0.512509D-02     -0.190213D-02
   zzz        0.119037D+02      0.102839D+00      0.381676D-01

 ----------------------------------------------------------------------

 Dipole orientation:
    78          0.20196100          0.00628006          1.89481251
     6         -0.02380801         -0.00007216         -1.97161018
     7          0.22955827         -3.82209218          2.56738673
     7          0.25377045          3.83674359          2.55746768
     6          0.18843070          5.62674424          0.76361479
     6          0.14864481         -5.61540350          0.77749835
     6          0.37071795          4.51055623          5.07923162
     6          0.35110335         -4.49106603          5.09009928
     6          0.43192642         -2.33619089          6.82898095
     6          0.44097352          2.35951695          6.82324627
     6          0.56710704          2.29689097          9.47142257
     6          0.41173096          7.07432414          5.74930757
     6          0.34192297          8.92364786          3.88568144
     6          0.23219390          8.19176627          1.34422820
     6          0.55888556         -2.26742732          9.47694097
     6          0.62591632          0.01623459         10.80138367
     6          0.39404416         -7.05381629          5.76463603
     6          0.31319807         -8.90661965          3.90484836
     1          0.49555631         -7.56638350          7.75383159
     6          0.18525033         -8.17921685          1.36288565
     6          0.37601118          0.01031662          5.57890147
     9          0.62215572         -4.41205415         10.82378088
     9          0.63755763          4.44459582         10.81309592
     1          0.05786486         -4.93708266         -1.16616336
     6          0.04058141        -10.13841571         -0.69809142
     1          0.35509257        -10.90110366          4.43123775
     1          0.09235631          4.94497899         -1.17866623
     6          0.21082403         10.14748775         -0.72514895
     1          0.49648281          7.59015711          7.73840345
     1          0.36605828         10.91908313          4.40909858
     6         -0.24174905         -0.00750321         -4.29840759
     6         -0.52645426         -0.01601420         -6.98716058
     6         -0.72678583          2.25180893         -8.38684394
     6         -0.64490287         -2.29283145         -8.38164075
     6         -1.03417133          2.25824501        -10.99634711
     6         -0.95102270         -2.31621701        -10.99123496
     6         -1.16159086         -0.03360143        -12.39117365
     7         -1.47578264         -0.04213973        -14.97489640
     1          0.72521067          0.01852268         12.85892304
     9         -1.50044339         11.96786743         -0.25848459
     9         -0.33719629          9.14016190         -2.98877884
     9          2.46774077         11.30307143         -0.93861089
     9          0.32353539         -9.12247295         -3.00612258
     9         -2.19633148        -11.35061950         -0.67409363
     9          1.83684435        -11.91441421         -0.41466064
     1         -0.64306121          4.05739886         -7.38634825
     1         -1.18030029          4.07081571        -11.96168231
     1         -1.03014011         -4.13496924        -11.95286308
     1         -0.49528133         -4.09194766         -7.37717146
     6         -1.69365952          2.32382982        -16.34309331
     6         -1.60702020         -2.41751792        -16.33787224
     1          0.00517309          3.51933225        -16.12397710
     1         -3.33769746          3.44941409        -15.71468369
     1         -1.93262445          1.92934425        -18.36370390
     1         -3.20548693         -3.60304191        -15.70244162
     1          0.13655662         -3.54733010        -16.12104155
     1         -1.86616558         -2.03663482        -18.35861532

 Electric dipole moment (dipole orientation):
 (Debye = 10**-18 statcoulomb cm , SI units = C m)
                  (au)            (Debye)         (10**-30 SI)
   Tot        0.199997D+01      0.508342D+01      0.169565D+02
   x          0.000000D+00      0.000000D+00      0.000000D+00
   y          0.000000D+00      0.000000D+00      0.000000D+00
   z          0.199997D+01      0.508342D+01      0.169565D+02

 Dipole polarizability, Alpha (dipole orientation).
 (esu units = cm**3 , SI units = C**2 m**2 J**-1)
 Alpha(0;0):
               (au)            (10**-24 esu)      (10**-40 SI)
   iso        0.561873D+03      0.832610D+02      0.926404D+02
   aniso      0.554123D+03      0.821125D+02      0.913625D+02
   xx         0.209231D+03      0.310048D+02      0.344975D+02
   yx        -0.926809D-01     -0.137339D-01     -0.152810D-01
   yy         0.655383D+03      0.971177D+02      0.108058D+03
   zx         0.471697D+02      0.698983D+01      0.777723D+01
   zy         0.744052D+00      0.110257D+00      0.122678D+00
   zz         0.821006D+03      0.121660D+03      0.135366D+03

 Dipole polarizability, Alpha (dipole orientation).
 (esu units = cm**3 , SI units = C**2 m**2 J**-1)
 Alpha(0;0):
               (au)            (10**-24 esu)      (10**-40 SI)
   iso        0.561873D+03      0.832610D+02      0.926404D+02
   aniso      0.554123D+03      0.821125D+02      0.913625D+02
   xx         0.209231D+03      0.310048D+02      0.344975D+02
   yx        -0.926809D-01     -0.137339D-01     -0.152810D-01
   yy         0.655383D+03      0.971177D+02      0.108058D+03
   zx         0.471697D+02      0.698983D+01      0.777723D+01
   zy         0.744052D+00      0.110257D+00      0.122678D+00
   zz         0.821006D+03      0.121660D+03      0.135366D+03
 Alpha(-w;w) w= 1907.0nm:
                  (au)         (10**-24 esu)      (10**-40 SI)
   iso        0.479399D+03      0.710396D+02      0.790422D+02
   aniso      0.491276D+03      0.727996D+02      0.810005D+02
   xx         0.170306D+03      0.252367D+02      0.280796D+02
   yx         0.183697D+00      0.272211D-01      0.302875D-01
   yy         0.550604D+03      0.815911D+02      0.907823D+02
   zx         0.430170D+02      0.637447D+01      0.709255D+01
   zy         0.733608D+00      0.108710D+00      0.120956D+00
   zz         0.717287D+03      0.106291D+03      0.118265D+03

 First dipole hyperpolarizability, Beta (dipole orientation).
 ||, _|_  parallel and perpendicular components, (z) with respect to z axis,
 vector components x,y,z.  Values do not include the 1/n! factor of 1/2.
 (esu units = statvolt**-1 cm**4 , SI units = C**3 m**3 J**-2)
 Beta(0;0,0):
               (au)            (10**-30 esu)      (10**-50 SI)
   || (z)     0.150896D+05      0.130362D+03      0.483827D+02
   _|_(z)     0.502986D+04      0.434541D+02      0.161276D+02
   x          0.670102D+04      0.578916D+02      0.214859D+02
   y          0.206059D+03      0.178019D+01      0.660701D+00
   z          0.754480D+05      0.651812D+03      0.241913D+03
   ||         0.151490D+05      0.130876D+03      0.485733D+02
   xxx       -0.224493D+02     -0.193945D+00     -0.719807D-01
   xxy        0.388792D+01      0.335886D-01      0.124661D-01
   yxy        0.108986D+03      0.941558D+00      0.349450D+00
   yyy        0.121678D+02      0.105121D+00      0.390145D-01
   xxz        0.101439D+03      0.876353D+00      0.325250D+00
   yxz        0.285488D+02      0.246639D+00      0.915378D-01
   yyz        0.439051D+03      0.379306D+01      0.140776D+01
   zxz        0.214713D+04      0.185496D+02      0.688449D+01
   zyz        0.526307D+02      0.454688D+00      0.168753D+00
   zzz        0.246088D+05      0.212601D+03      0.789048D+02

 First dipole hyperpolarizability, Beta (dipole orientation).
 ||, _|_  parallel and perpendicular components, (z) with respect to z axis,
 vector components x,y,z.  Values do not include the 1/n! factor of 1/2.
 (esu units = statvolt**-1 cm**4 , SI units = C**3 m**3 J**-2)
 Beta(0;0,0):
               (au)            (10**-30 esu)      (10**-50 SI)
   || (z)     0.150896D+05      0.130362D+03      0.483827D+02
   _|_(z)     0.502986D+04      0.434541D+02      0.161276D+02
   x          0.670102D+04      0.578916D+02      0.214859D+02
   y          0.206059D+03      0.178019D+01      0.660701D+00
   z          0.754480D+05      0.651812D+03      0.241913D+03
   ||         0.151490D+05      0.130876D+03      0.485733D+02
   xxx       -0.224493D+02     -0.193945D+00     -0.719807D-01
   xxy        0.388792D+01      0.335886D-01      0.124661D-01
   yxy        0.108986D+03      0.941558D+00      0.349450D+00
   yyy        0.121678D+02      0.105121D+00      0.390145D-01
   xxz        0.101439D+03      0.876353D+00      0.325250D+00
   yxz        0.285488D+02      0.246639D+00      0.915378D-01
   yyz        0.439051D+03      0.379306D+01      0.140776D+01
   zxz        0.214713D+04      0.185496D+02      0.688449D+01
   zyz        0.526307D+02      0.454688D+00      0.168753D+00
   zzz        0.246088D+05      0.212601D+03      0.789048D+02
 Beta(-w;w,0) w= 1907.0nm:
                  (au)         (10**-30 esu)      (10**-50 SI)
   || (z)     0.139414D+05      0.120442D+03      0.447010D+02
   _|_(z)     0.459271D+04      0.396774D+02      0.147259D+02
   x          0.620419D+04      0.535994D+02      0.198929D+02
   y          0.188255D+03      0.162638D+01      0.603614D+00
   z          0.697068D+05      0.602212D+03      0.223505D+03
   ||         0.139965D+05      0.120919D+03      0.448779D+02
   xxx       -0.178377D+02     -0.154104D+00     -0.571941D-01
   yxx        0.312218D+01      0.269732D-01      0.100108D-01
   yyx        0.106242D+03      0.917850D+00      0.340651D+00
   zxx        0.868008D+02      0.749891D+00      0.278315D+00
   zyx        0.235828D+02      0.203737D+00      0.756149D-01
   zzx        0.195177D+04      0.168617D+02      0.625807D+01
   xxy        0.327102D+01      0.282591D-01      0.104881D-01
   yxy        0.125713D+03      0.108607D+01      0.403083D+00
   yyy        0.119710D+02      0.103420D+00      0.383833D-01
   zxy        0.235573D+02      0.203517D+00      0.755333D-01
   zyy        0.832471D+03      0.719190D+01      0.266920D+01
   zzy        0.467097D+02      0.403535D+00      0.149768D+00
   xxz        0.106858D+03      0.923168D+00      0.342625D+00
   yxz        0.228441D+02      0.197355D+00      0.732465D-01
   yyz        0.649187D+03      0.560847D+01      0.208153D+01
   zxz        0.197414D+04      0.170550D+02      0.632979D+01
   zyz        0.480586D+02      0.415189D+00      0.154093D+00
   zzz        0.223707D+05      0.193266D+03      0.717287D+02
 Beta(-2w;w,w) w= 1907.0nm:
                  (au)         (10**-30 esu)      (10**-50 SI)
   || (z)     0.189707D+05      0.163892D+03      0.608269D+02
   _|_(z)     0.631264D+04      0.545363D+02      0.202406D+02
   x          0.841859D+04      0.727301D+02      0.269930D+02
   y          0.245730D+03      0.212292D+01      0.787900D+00
   z          0.948535D+05      0.819460D+03      0.304135D+03
   ||         0.190453D+05      0.164537D+03      0.610662D+02
   xxx       -0.120316D+02     -0.103944D+00     -0.385776D-01
   yxx        0.348047D+01      0.300685D-01      0.111596D-01
   zxx        0.138127D+03      0.119331D+01      0.442886D+00
   xyx        0.357281D+01      0.308663D-01      0.114557D-01
   yyx        0.202155D+03      0.174646D+01      0.648182D+00
   zyx        0.263839D+02      0.227936D+00      0.845964D-01
   xyy        0.202507D+03      0.174951D+01      0.649312D+00
   yyy        0.184389D+02      0.159297D+00      0.591216D-01
   zyy        0.177047D+04      0.152955D+02      0.567678D+01
   xzx        0.154395D+03      0.133385D+01      0.495046D+00
   yzx        0.256735D+02      0.221799D+00      0.823187D-01
   zzx        0.261144D+04      0.225608D+02      0.837323D+01
   xzy        0.251958D+02      0.217672D+00      0.807869D-01
   yzy        0.178698D+04      0.154381D+02      0.572971D+01
   zzy        0.601036D+02      0.519248D+00      0.192714D+00
   xzz        0.262498D+04      0.226778D+02      0.841663D+01
   yzz        0.595806D+02      0.514730D+00      0.191037D+00
   zzz        0.296874D+05      0.256476D+03      0.951885D+02

 ----------------------------------------------------------------------
 Unable to Open any file for archive entry.
 1\1\GINC-NQTCM16\SP\RB3LYP\Gen\C28H17F8N3Pt1\NQTCM\12-Apr-2023\0\\#p B
 3LYP/gen gfinput Integral(Grid=UltraFine,Acc2E=12) scf=maxcycle=200 Po
 lar=(DCSHG) CPHF=RdFreq scrf=(iefpcm,solvent=n,n-DiMethylFormamide)\\P
 rimeira Hiperpolarizabilidade\\0,1\Pt,0,1.008098,-0.002554,-0.023564\C
 ,0,-1.040778,0.006667,-0.073725\N,0,1.351872,-2.030588,-0.021851\N,0,1
 .371945,2.022246,-0.008714\C,0,0.428756,2.975399,-0.046602\C,0,0.39874
 9,-2.973631,-0.063676\C,0,2.709059,2.370496,0.042286\C,0,2.685437,-2.3
 92871,0.022148\C,0,3.612802,-1.258329,0.063032\C,0,3.625038,1.226484,0
 .074159\C,0,5.026887,1.184637,0.123314\C,0,3.072337,3.724956,0.058798\
 C,0,2.092345,4.709726,0.020417\C,0,0.74498,4.330839,-0.035451\C,0,5.01
 4989,-1.230647,0.112194\C,0,5.723602,-0.026575,0.142658\C,0,3.034924,-
 3.751151,0.020208\C,0,2.044754,-4.725434,-0.024916\H,0,4.086755,-4.028
 899,0.051962\C,0,0.700942,-4.332187,-0.06618\C,0,2.958548,-0.012537,0.
 045884\F,0,5.721231,-2.369922,0.130392\F,0,5.744306,2.316718,0.152261\
 H,0,-0.628075,-2.608296,-0.098527\C,0,-0.398457,-5.36228,-0.086817\H,0
 ,2.317868,-5.782506,-0.030833\H,0,-0.601877,2.621014,-0.083278\C,0,-0.
 341058,5.372771,-0.108014\H,0,4.126637,3.99134,0.102923\H,0,2.375744,5
 .7639,0.037457\C,0,-2.277388,0.010047,-0.060642\C,0,-3.707803,0.013889
 ,-0.028194\C,0,-4.447523,1.218102,0.023999\C,0,-4.45558,-1.186483,-0.0
 34584\C,0,-5.837091,1.229509,0.071927\C,0,-5.845235,-1.190852,0.01257\
 C,0,-6.585491,0.021157,0.070201\N,0,-7.961809,0.02453,0.122795\H,0,6.8
 13007,-0.032126,0.180343\F,0,-0.164121,6.329015,0.821111\F,0,-1.561973
 ,4.845788,0.078463\F,0,-0.351158,5.992134,-1.303574\F,0,-1.600001,-4.8
 15854,-0.333542\F,0,-0.487575,-6.010889,1.089708\F,0,-0.175967,-6.2973
 5,-1.027787\H,0,-3.910527,2.170366,0.029839\H,0,-6.346824,2.1915,0.112
 978\H,0,-6.361574,-2.1502,0.005956\H,0,-3.925014,-2.141478,-0.075718\C
 ,0,-8.685382,1.280514,0.185956\C,0,-8.693844,-1.228145,0.124189\H,0,-8
 .491668,1.917746,-0.696229\H,0,-8.422404,1.868759,1.084316\H,0,-9.7626
 69,1.077962,0.222194\H,0,-8.432484,-1.862718,0.990876\H,0,-8.506737,-1
 .821219,-0.789689\H,0,-9.76963,-1.020469,0.17373\\Version=EM64L-G16Rev
 C.01\State=1-A\HF=-19355.45946\RMSD=8.492e-09\Dipole=1.9930803,-0.0129
 977,0.1653911\Polar=824.5989893,-0.3038818,655.3595807,3.9179928,3.053
 2925,205.6609182\HyperPolar=24887.6722923,-85.9407641,447.078636,5.557
 8677,-91.0120038,-20.5618104,-71.9608226,-86.8875759,-1.0158204,17.210
 2809\Quadrupole=31.2378855,-6.3987873,-24.8390982,-0.1156964,-0.985513
 8,0.7440321\PG=C01 [X(C28H17F8N3Pt1)]\\@
 The archive entry for this job was punched.


 THE TEST OF A FIRST RATE INTELLIGENCE IS THE ABILITY TO HOLD TWO OPPOSED
 IDEAS IN THE MIND AT THE SAME TIME, AND STILL RETAIN THE ABILITY TO FUNCTION.
 ONE SHOULD, FOR EXAMPLE, BE ABLE TO SEE THAT THINGS ARE HOPELESS AND YET BE
 DETERMINED TO MAKE THEM OTHERWISE.

                                                       -- F. SCOTT FITZGERALD
 Job cpu time:       0 days 11 hours 21 minutes 44.4 seconds.
 Elapsed time:       0 days  0 hours 56 minutes 59.8 seconds.
 File lengths (MBytes):  RWF=   4569 Int=      0 D2E=      0 Chk=     36 Scr=      1
 Normal termination of Gaussian 16 at Wed Apr 12 13:46:15 2023.
