 Entering Gaussian System, Link 0=g09
 Input=OPT_B3LYP_LANL2TZF_def2SVP_ONL_B3LYP_LANL2TZF_jorgeDZP_IEFPCM.com
 Output=OPT_B3LYP_LANL2TZF_def2SVP_ONL_B3LYP_LANL2TZF_jorgeDZP_IEFPCM.log
 Initial command:
 /home/scr/programs/g09/l1.exe "/home/scr/guest/Gau-24379.inp" -scrdir="/home/scr/guest/"
 Entering Link 1 = /home/scr/programs/g09/l1.exe PID=     24380.
  
 Copyright (c) 1988,1990,1992,1993,1995,1998,2003,2009,2013,
            Gaussian, Inc.  All Rights Reserved.
  
 This is part of the Gaussian(R) 09 program.  It is based on
 the Gaussian(R) 03 system (copyright 2003, Gaussian, Inc.),
 the Gaussian(R) 98 system (copyright 1998, Gaussian, Inc.),
 the Gaussian(R) 94 system (copyright 1995, Gaussian, Inc.),
 the Gaussian 92(TM) system (copyright 1992, Gaussian, Inc.),
 the Gaussian 90(TM) system (copyright 1990, Gaussian, Inc.),
 the Gaussian 88(TM) system (copyright 1988, Gaussian, Inc.),
 the Gaussian 86(TM) system (copyright 1986, Carnegie Mellon
 University), and the Gaussian 82(TM) system (copyright 1983,
 Carnegie Mellon University). Gaussian is a federally registered
 trademark of Gaussian, Inc.
  
 This software contains proprietary and confidential information,
 including trade secrets, belonging to Gaussian, Inc.
  
 This software is provided under written license and may be
 used, copied, transmitted, or stored only in accord with that
 written license.
  
 The following legend is applicable only to US Government
 contracts under FAR:
  
                    RESTRICTED RIGHTS LEGEND
  
 Use, reproduction and disclosure by the US Government is
 subject to restrictions as set forth in subparagraphs (a)
 and (c) of the Commercial Computer Software - Restricted
 Rights clause in FAR 52.227-19.
  
 Gaussian, Inc.
 340 Quinnipiac St., Bldg. 40, Wallingford CT 06492
  
  
 ---------------------------------------------------------------
 Warning -- This program may not be used in any manner that
 competes with the business of Gaussian, Inc. or will provide
 assistance to any competitor of Gaussian, Inc.  The licensee
 of this program is prohibited from giving any competitor of
 Gaussian, Inc. access to this program.  By using this program,
 the user acknowledges that Gaussian, Inc. is engaged in the
 business of creating and licensing software in the field of
 computational chemistry and represents and warrants to the
 licensee that it is not a competitor of Gaussian, Inc. and that
 it will not use this program in any manner prohibited above.
 ---------------------------------------------------------------
  

 Cite this work as:
 Gaussian 09, Revision D.01,
 M. J. Frisch, G. W. Trucks, H. B. Schlegel, G. E. Scuseria, 
 M. A. Robb, J. R. Cheeseman, G. Scalmani, V. Barone, B. Mennucci, 
 G. A. Petersson, H. Nakatsuji, M. Caricato, X. Li, H. P. Hratchian, 
 A. F. Izmaylov, J. Bloino, G. Zheng, J. L. Sonnenberg, M. Hada, 
 M. Ehara, K. Toyota, R. Fukuda, J. Hasegawa, M. Ishida, T. Nakajima, 
 Y. Honda, O. Kitao, H. Nakai, T. Vreven, J. A. Montgomery, Jr., 
 J. E. Peralta, F. Ogliaro, M. Bearpark, J. J. Heyd, E. Brothers, 
 K. N. Kudin, V. N. Staroverov, T. Keith, R. Kobayashi, J. Normand, 
 K. Raghavachari, A. Rendell, J. C. Burant, S. S. Iyengar, J. Tomasi, 
 M. Cossi, N. Rega, J. M. Millam, M. Klene, J. E. Knox, J. B. Cross, 
 V. Bakken, C. Adamo, J. Jaramillo, R. Gomperts, R. E. Stratmann, 
 O. Yazyev, A. J. Austin, R. Cammi, C. Pomelli, J. W. Ochterski, 
 R. L. Martin, K. Morokuma, V. G. Zakrzewski, G. A. Voth, 
 P. Salvador, J. J. Dannenberg, S. Dapprich, A. D. Daniels, 
 O. Farkas, J. B. Foresman, J. V. Ortiz, J. Cioslowski, 
 and D. J. Fox, Gaussian, Inc., Wallingford CT, 2013.
 
 ******************************************
 Gaussian 09:  EM64L-G09RevD.01 24-Apr-2013
                19-May-2023 
 ******************************************
 %chk=OPT_B3LYP_LANL2TZF_def2SVP_ONL_B3LYP_LANL2TZF_jorge-DZP_IEFPCM.chk
 %mem=100Gb
 %nproc=32
 Will use up to   32 processors via shared memory.
 ----------------------------------------------------------------------
 #p B3LYP/gen gfinput pseudo=read Integral(Grid=UltraFine,Acc2E=12) scf
 =maxcycle=200 Polar=(DCSHG) CPHF=RdFreq scrf=(iefpcm,read,solvent=n,n-
 DiMethylFormamide)
 ----------------------------------------------------------------------
 1/38=1,40=2,83=1/1;
 2/12=2,17=6,18=5,40=1/2;
 3/5=7,11=2,16=1,17=8,24=10,25=1,30=1,70=2203,72=148,74=-5,75=-5/1,2,3;
 4//1;
 5/5=2,7=200,38=5,53=148,87=12,98=1/2;
 8/6=4,10=90,11=11,87=12/1;
 10/6=20001,13=10,72=3,87=12/2;
 6/7=2,8=2,9=2,10=2,28=1/1;
 99/5=1,9=1/99;
 Leave Link    1 at Fri May 19 11:11:59 2023, MaxMem= 13421772800 cpu:        15.5
 (Enter /home/scr/programs/g09/l101.exe)
 ------------------------------
 Primeira Hiperpolarizabilidade
 ------------------------------
 Symbolic Z-matrix:
 Charge =  0 Multiplicity = 1
 Pt                    1.0081   -0.00255  -0.02356 
 C                    -1.04078   0.00667  -0.07373 
 N                     1.35187  -2.03059  -0.02185 
 N                     1.37195   2.02225  -0.00871 
 C                     0.42876   2.9754   -0.0466 
 C                     0.39875  -2.97363  -0.06368 
 C                     2.70906   2.3705    0.04229 
 C                     2.68544  -2.39287   0.02215 
 C                     3.6128   -1.25833   0.06303 
 C                     3.62504   1.22648   0.07416 
 C                     5.02689   1.18464   0.12331 
 C                     3.07234   3.72496   0.0588 
 C                     2.09234   4.70973   0.02042 
 C                     0.74498   4.33084  -0.03545 
 C                     5.01499  -1.23065   0.11219 
 C                     5.7236   -0.02658   0.14266 
 C                     3.03492  -3.75115   0.02021 
 C                     2.04475  -4.72543  -0.02492 
 H                     4.08676  -4.0289    0.05196 
 C                     0.70094  -4.33219  -0.06618 
 C                     2.95855  -0.01254   0.04588 
 F                     5.72123  -2.36992   0.13039 
 F                     5.74431   2.31672   0.15226 
 H                    -0.62808  -2.6083   -0.09853 
 C                    -0.39846  -5.36228  -0.08682 
 H                     2.31787  -5.78251  -0.03083 
 H                    -0.60188   2.62101  -0.08328 
 C                    -0.34106   5.37277  -0.10801 
 H                     4.12664   3.99134   0.10292 
 H                     2.37574   5.7639    0.03746 
 C                    -2.27739   0.01005  -0.06064 
 C                    -3.7078    0.01389  -0.02819 
 C                    -4.44752   1.2181    0.024 
 C                    -4.45558  -1.18648  -0.03458 
 C                    -5.83709   1.22951   0.07193 
 C                    -5.84524  -1.19085   0.01257 
 C                    -6.58549   0.02116   0.0702 
 N                    -7.96181   0.02453   0.1228 
 H                     6.81301  -0.03213   0.18034 
 F                    -0.16412   6.32902   0.82111 
 F                    -1.56197   4.84579   0.07846 
 F                    -0.35116   5.99213  -1.30357 
 F                    -1.6      -4.81585  -0.33354 
 F                    -0.48758  -6.01089   1.08971 
 F                    -0.17597  -6.29735  -1.02779 
 H                    -3.91053   2.17037   0.02984 
 H                    -6.34682   2.1915    0.11298 
 H                    -6.36157  -2.1502    0.00596 
 H                    -3.92501  -2.14148  -0.07572 
 C                    -8.68538   1.28051   0.18596 
 C                    -8.69384  -1.22815   0.12419 
 H                    -8.49167   1.91775  -0.69623 
 H                    -8.4224    1.86876   1.08432 
 H                    -9.76267   1.07796   0.22219 
 H                    -8.43248  -1.86272   0.99088 
 H                    -8.50674  -1.82122  -0.78969 
 H                    -9.76963  -1.02047   0.17373 
 
 NAtoms=     57 NQM=       57 NQMF=       0 NMMI=      0 NMMIF=      0
                NMic=       0 NMicF=      0.
                    Isotopes and Nuclear Properties:
 (Nuclear quadrupole moments (NQMom) in fm**2, nuclear magnetic moments (NMagM)
  in nuclear magnetons)

  Atom         1           2           3           4           5           6           7           8           9          10
 IAtWgt=         195          12          14          14          12          12          12          12          12          12
 AtmWgt= 194.9648000  12.0000000  14.0030740  14.0030740  12.0000000  12.0000000  12.0000000  12.0000000  12.0000000  12.0000000
 NucSpn=           1           0           2           2           0           0           0           0           0           0
 AtZEff=   0.0000000   0.0000000   0.0000000   0.0000000   0.0000000   0.0000000   0.0000000   0.0000000   0.0000000   0.0000000
 NQMom=    0.0000000   0.0000000   2.0440000   2.0440000   0.0000000   0.0000000   0.0000000   0.0000000   0.0000000   0.0000000
 NMagM=    0.6095000   0.0000000   0.4037610   0.4037610   0.0000000   0.0000000   0.0000000   0.0000000   0.0000000   0.0000000
 AtZNuc=  78.0000000   6.0000000   7.0000000   7.0000000   6.0000000   6.0000000   6.0000000   6.0000000   6.0000000   6.0000000

  Atom        11          12          13          14          15          16          17          18          19          20
 IAtWgt=          12          12          12          12          12          12          12          12           1          12
 AtmWgt=  12.0000000  12.0000000  12.0000000  12.0000000  12.0000000  12.0000000  12.0000000  12.0000000   1.0078250  12.0000000
 NucSpn=           0           0           0           0           0           0           0           0           1           0
 AtZEff=   0.0000000   0.0000000   0.0000000   0.0000000   0.0000000   0.0000000   0.0000000   0.0000000   0.0000000   0.0000000
 NQMom=    0.0000000   0.0000000   0.0000000   0.0000000   0.0000000   0.0000000   0.0000000   0.0000000   0.0000000   0.0000000
 NMagM=    0.0000000   0.0000000   0.0000000   0.0000000   0.0000000   0.0000000   0.0000000   0.0000000   2.7928460   0.0000000
 AtZNuc=   6.0000000   6.0000000   6.0000000   6.0000000   6.0000000   6.0000000   6.0000000   6.0000000   1.0000000   6.0000000

  Atom        21          22          23          24          25          26          27          28          29          30
 IAtWgt=          12          19          19           1          12           1           1          12           1           1
 AtmWgt=  12.0000000  18.9984033  18.9984033   1.0078250  12.0000000   1.0078250   1.0078250  12.0000000   1.0078250   1.0078250
 NucSpn=           0           1           1           1           0           1           1           0           1           1
 AtZEff=   0.0000000   0.0000000   0.0000000   0.0000000   0.0000000   0.0000000   0.0000000   0.0000000   0.0000000   0.0000000
 NQMom=    0.0000000   0.0000000   0.0000000   0.0000000   0.0000000   0.0000000   0.0000000   0.0000000   0.0000000   0.0000000
 NMagM=    0.0000000   2.6288670   2.6288670   2.7928460   0.0000000   2.7928460   2.7928460   0.0000000   2.7928460   2.7928460
 AtZNuc=   6.0000000   9.0000000   9.0000000   1.0000000   6.0000000   1.0000000   1.0000000   6.0000000   1.0000000   1.0000000

  Atom        31          32          33          34          35          36          37          38          39          40
 IAtWgt=          12          12          12          12          12          12          12          14           1          19
 AtmWgt=  12.0000000  12.0000000  12.0000000  12.0000000  12.0000000  12.0000000  12.0000000  14.0030740   1.0078250  18.9984033
 NucSpn=           0           0           0           0           0           0           0           2           1           1
 AtZEff=   0.0000000   0.0000000   0.0000000   0.0000000   0.0000000   0.0000000   0.0000000   0.0000000   0.0000000   0.0000000
 NQMom=    0.0000000   0.0000000   0.0000000   0.0000000   0.0000000   0.0000000   0.0000000   2.0440000   0.0000000   0.0000000
 NMagM=    0.0000000   0.0000000   0.0000000   0.0000000   0.0000000   0.0000000   0.0000000   0.4037610   2.7928460   2.6288670
 AtZNuc=   6.0000000   6.0000000   6.0000000   6.0000000   6.0000000   6.0000000   6.0000000   7.0000000   1.0000000   9.0000000

  Atom        41          42          43          44          45          46          47          48          49          50
 IAtWgt=          19          19          19          19          19           1           1           1           1          12
 AtmWgt=  18.9984033  18.9984033  18.9984033  18.9984033  18.9984033   1.0078250   1.0078250   1.0078250   1.0078250  12.0000000
 NucSpn=           1           1           1           1           1           1           1           1           1           0
 AtZEff=   0.0000000   0.0000000   0.0000000   0.0000000   0.0000000   0.0000000   0.0000000   0.0000000   0.0000000   0.0000000
 NQMom=    0.0000000   0.0000000   0.0000000   0.0000000   0.0000000   0.0000000   0.0000000   0.0000000   0.0000000   0.0000000
 NMagM=    2.6288670   2.6288670   2.6288670   2.6288670   2.6288670   2.7928460   2.7928460   2.7928460   2.7928460   0.0000000
 AtZNuc=   9.0000000   9.0000000   9.0000000   9.0000000   9.0000000   1.0000000   1.0000000   1.0000000   1.0000000   6.0000000

  Atom        51          52          53          54          55          56          57
 IAtWgt=          12           1           1           1           1           1           1
 AtmWgt=  12.0000000   1.0078250   1.0078250   1.0078250   1.0078250   1.0078250   1.0078250
 NucSpn=           0           1           1           1           1           1           1
 AtZEff=   0.0000000   0.0000000   0.0000000   0.0000000   0.0000000   0.0000000   0.0000000
 NQMom=    0.0000000   0.0000000   0.0000000   0.0000000   0.0000000   0.0000000   0.0000000
 NMagM=    0.0000000   2.7928460   2.7928460   2.7928460   2.7928460   2.7928460   2.7928460
 AtZNuc=   6.0000000   1.0000000   1.0000000   1.0000000   1.0000000   1.0000000   1.0000000
 Using perturbation frequencies:    0.000000    0.023893
 Leave Link  101 at Fri May 19 11:11:59 2023, MaxMem= 13421772800 cpu:         4.4
 (Enter /home/scr/programs/g09/l202.exe)
 Stoichiometry    C28H17F8N3Pt
 Framework group  C1[X(C28H17F8N3Pt)]
 Deg. of freedom   165
 Full point group                 C1      NOp   1
 Largest Abelian subgroup         C1      NOp   1
 Largest concise Abelian subgroup C1      NOp   1
                         Standard orientation:                         
 ---------------------------------------------------------------------
 Center     Atomic      Atomic             Coordinates (Angstroms)
 Number     Number       Type             X           Y           Z
 ---------------------------------------------------------------------
      1         78           0       -1.008098   -0.002554    0.023564
      2          6           0        1.040778    0.006667    0.073725
      3          7           0       -1.351872   -2.030588    0.021851
      4          7           0       -1.371945    2.022246    0.008714
      5          6           0       -0.428755    2.975399    0.046602
      6          6           0       -0.398749   -2.973631    0.063676
      7          6           0       -2.709059    2.370497   -0.042286
      8          6           0       -2.685437   -2.392870   -0.022148
      9          6           0       -3.612802   -1.258328   -0.063032
     10          6           0       -3.625038    1.226485   -0.074159
     11          6           0       -5.026887    1.184638   -0.123314
     12          6           0       -3.072336    3.724957   -0.058798
     13          6           0       -2.092344    4.709726   -0.020417
     14          6           0       -0.744979    4.330839    0.035451
     15          6           0       -5.014989   -1.230646   -0.112194
     16          6           0       -5.723602   -0.026574   -0.142658
     17          6           0       -3.034925   -3.751150   -0.020208
     18          6           0       -2.044755   -4.725434    0.024916
     19          1           0       -4.086756   -4.028898   -0.051962
     20          6           0       -0.700943   -4.332187    0.066180
     21          6           0       -2.958548   -0.012536   -0.045884
     22          9           0       -5.721231   -2.369921   -0.130392
     23          9           0       -5.744306    2.316719   -0.152261
     24          1           0        0.628075   -2.608296    0.098527
     25          6           0        0.398456   -5.362280    0.086817
     26          1           0       -2.317869   -5.782506    0.030833
     27          1           0        0.601877    2.621014    0.083278
     28          6           0        0.341059    5.372771    0.108014
     29          1           0       -4.126636    3.991341   -0.102923
     30          1           0       -2.375743    5.763900   -0.037457
     31          6           0        2.277388    0.010047    0.060642
     32          6           0        3.707803    0.013889    0.028194
     33          6           0        4.447523    1.218101   -0.023999
     34          6           0        4.455580   -1.186484    0.034584
     35          6           0        5.837091    1.229508   -0.071927
     36          6           0        5.845235   -1.190853   -0.012570
     37          6           0        6.585491    0.021156   -0.070201
     38          7           0        7.961809    0.024529   -0.122795
     39          1           0       -6.813007   -0.032125   -0.180343
     40          9           0        0.164122    6.329015   -0.821111
     41          9           0        1.561974    4.845788   -0.078463
     42          9           0        0.351159    5.992134    1.303574
     43          9           0        1.600000   -4.815854    0.333542
     44          9           0        0.487574   -6.010889   -1.089708
     45          9           0        0.175966   -6.297350    1.027787
     46          1           0        3.910527    2.170366   -0.029839
     47          1           0        6.346824    2.191499   -0.112978
     48          1           0        6.361574   -2.150201   -0.005956
     49          1           0        3.925014   -2.141478    0.075718
     50          6           0        8.685382    1.280513   -0.185956
     51          6           0        8.693844   -1.228146   -0.124189
     52          1           0        8.491668    1.917745    0.696229
     53          1           0        8.422404    1.868758   -1.084316
     54          1           0        9.762669    1.077961   -0.222194
     55          1           0        8.432484   -1.862719   -0.990876
     56          1           0        8.506737   -1.821220    0.789689
     57          1           0        9.769630   -1.020470   -0.173730
 ---------------------------------------------------------------------
 Rotational constants (GHZ):      0.0734786      0.0557567      0.0320899
 Leave Link  202 at Fri May 19 11:11:59 2023, MaxMem= 13421772800 cpu:         2.0
 (Enter /home/scr/programs/g09/l301.exe)
 General basis read from cards:  (5D, 7F)
 Centers:      19     24     26     27     29     30     39     46     47     48
 Centers:      49     52     53     54     55     56     57
 S 3 1.00
     Exponent=  1.2985114840D+01 Coefficients=  3.1044900000D-02
     Exponent=  1.9590813400D+00 Coefficients=  2.1732620000D-01
     Exponent=  4.4403649000D-01 Coefficients=  7.5162870000D-01
 S 1 1.00
     Exponent=  1.1282695000D-01 Coefficients=  1.0000000000D+00
 P 1 1.00
     Exponent=  8.0305095000D-01 Coefficients=  1.0000000000D+00
 ****
 Centers:       2      5      6      7      8      9     10     11     12     13
 Centers:      14     15     16     17     18     20     21     25     28     31
 Centers:      32     33     34     35     36     37     50     51
 S 5 1.00
     Exponent=  4.9494603259D+03 Coefficients=  1.9796000000D-03
     Exponent=  7.5882582124D+02 Coefficients=  1.4849600000D-02
     Exponent=  1.7262336223D+02 Coefficients=  7.6254500000D-02
     Exponent=  4.7777421130D+01 Coefficients=  2.8721220000D-01
     Exponent=  1.5151406030D+01 Coefficients=  7.1045570000D-01
 S 2 1.00
     Exponent=  5.3940034500D+00 Coefficients=  7.5308920000D-01
     Exponent=  2.1108362800D+00 Coefficients=  2.7719720000D-01
 S 1 1.00
     Exponent=  5.2460137000D-01 Coefficients=  1.0000000000D+00
 S 1 1.00
     Exponent=  1.5964728000D-01 Coefficients=  1.0000000000D+00
 P 4 1.00
     Exponent=  1.8972199230D+01 Coefficients=  1.7902300000D-02
     Exponent=  4.1872159500D+00 Coefficients=  1.1141280000D-01
     Exponent=  1.2138823900D+00 Coefficients=  3.7447150000D-01
     Exponent=  3.8698643000D-01 Coefficients=  6.5135150000D-01
 P 1 1.00
     Exponent=  1.2406489000D-01 Coefficients=  1.0000000000D+00
 D 1 1.00
     Exponent=  6.1467289000D-01 Coefficients=  1.0000000000D+00
 ****
 Centers:       3      4     38
 S 5 1.00
     Exponent=  6.7117639804D+03 Coefficients=  1.9838000000D-03
     Exponent=  1.0295608851D+03 Coefficients=  1.4861900000D-02
     Exponent=  2.3462552896D+02 Coefficients=  7.6129100000D-02
     Exponent=  6.5086163220D+01 Coefficients=  2.8664530000D-01
     Exponent=  2.0681343710D+01 Coefficients=  7.1084400000D-01
 S 2 1.00
     Exponent=  7.3594862000D+00 Coefficients=  7.6173570000D-01
     Exponent=  2.8613305800D+00 Coefficients=  2.6828420000D-01
 S 1 1.00
     Exponent=  7.5772555000D-01 Coefficients=  1.0000000000D+00
 S 1 1.00
     Exponent=  2.2278085000D-01 Coefficients=  1.0000000000D+00
 P 4 1.00
     Exponent=  2.6953129000D+01 Coefficients=  1.8561600000D-02
     Exponent=  6.0177787400D+00 Coefficients=  1.1657610000D-01
     Exponent=  1.7606264000D+00 Coefficients=  3.8164280000D-01
     Exponent=  5.6064983000D-01 Coefficients=  6.4123790000D-01
 P 1 1.00
     Exponent=  1.7525619000D-01 Coefficients=  1.0000000000D+00
 D 1 1.00
     Exponent=  8.9591019000D-01 Coefficients=  1.0000000000D+00
 ****
 Centers:      22     23     40     41     42     43     44     45
 S 5 1.00
     Exponent=  1.1245074274D+04 Coefficients=  1.9652000000D-03
     Exponent=  1.7269798603D+03 Coefficients=  1.4695400000D-02
     Exponent=  3.9423268791D+02 Coefficients=  7.5215900000D-02
     Exponent=  1.0951217360D+02 Coefficients=  2.8457400000D-01
     Exponent=  3.4821225530D+01 Coefficients=  7.1329670000D-01
 S 2 1.00
     Exponent=  1.2363869690D+01 Coefficients=  7.6859300000D-01
     Exponent=  4.7574494200D+00 Coefficients=  2.6150910000D-01
 S 1 1.00
     Exponent=  1.3740014300D+00 Coefficients=  1.0000000000D+00
 S 1 1.00
     Exponent=  3.9513873000D-01 Coefficients=  1.0000000000D+00
 P 4 1.00
     Exponent=  4.3982339250D+01 Coefficients=  2.1005500000D-02
     Exponent=  9.9446924600D+00 Coefficients=  1.3185660000D-01
     Exponent=  2.9340607900D+00 Coefficients=  4.0068290000D-01
     Exponent=  9.1404725000D-01 Coefficients=  6.1602010000D-01
 P 1 1.00
     Exponent=  2.6664491000D-01 Coefficients=  1.0000000000D+00
 D 1 1.00
     Exponent=  1.6894999100D+00 Coefficients=  1.0000000000D+00
 ****
 Centers:       1
 S 1 1.00
     Exponent=  2.5470000000D+00 Coefficients=  1.0000000000D+00
 S 1 1.00
     Exponent=  1.6140000000D+00 Coefficients=  1.0000000000D+00
 S 1 1.00
     Exponent=  5.1670000000D-01 Coefficients=  1.0000000000D+00
 S 1 1.00
     Exponent=  2.6510000000D-01 Coefficients=  1.0000000000D+00
 S 1 1.00
     Exponent=  5.8000000000D-02 Coefficients=  1.0000000000D+00
 P 1 1.00
     Exponent=  2.9110000000D+00 Coefficients=  1.0000000000D+00
 P 1 1.00
     Exponent=  1.8360000000D+00 Coefficients=  1.0000000000D+00
 P 1 1.00
     Exponent=  5.9820000000D-01 Coefficients=  1.0000000000D+00
 P 1 1.00
     Exponent=  9.9600000000D-02 Coefficients=  1.0000000000D+00
 P 1 1.00
     Exponent=  2.9000000000D-02 Coefficients=  1.0000000000D+00
 D 1 1.00
     Exponent=  1.2430000000D+00 Coefficients=  1.0000000000D+00
 D 1 1.00
     Exponent=  4.2710000000D-01 Coefficients=  1.0000000000D+00
 D 1 1.00
     Exponent=  1.3700000000D-01 Coefficients=  1.0000000000D+00
 F 1 1.00
     Exponent=  9.9300000000D-01 Coefficients=  1.0000000000D+00
 ****
 ======================================================================================================
                                       Pseudopotential Parameters
 ======================================================================================================
  Center     Atomic      Valence      Angular      Power
  Number     Number     Electrons     Momentum     of R      Exponent        Coefficient   SO-Coeffient
 ======================================================================================================
    1         78           18
                                      G and up 
                                                     1      728.9394056       -0.16192680    0.00000000
                                                     2      320.6567800    -1320.28738520    0.00000000
                                                     2       52.8680174     -298.31781350    0.00000000
                                                     2       12.0280128      -87.58370650    0.00000000
                                                     2        3.5238913       -8.14932740    0.00000000
                                      S - G
                                                     0      409.4437358        2.73342180    0.00000000
                                                     1      274.5419231       59.70243290    0.00000000
                                                     2      127.5658570      891.45895500    0.00000000
                                                     2       32.9036631      368.44676560    0.00000000
                                                     2        5.0593880      238.02630900    0.00000000
                                                     2        4.1506556     -107.05564540    0.00000000
                                      P - G
                                                     0      466.1728892        1.88785680    0.00000000
                                                     1      120.7888259       76.01386290    0.00000000
                                                     2       36.4118791      343.55111160    0.00000000
                                                     2        5.6985408      119.49117860    0.00000000
                                      D - G
                                                     0      249.5650763        2.93436780    0.00000000
                                                     1      126.6678585       59.33065710    0.00000000
                                                     2       63.1430586      452.44451940    0.00000000
                                                     2       17.9059470      210.47694790    0.00000000
                                                     2        4.2239373       58.62541120    0.00000000
                                      F - G
                                                     0      121.8158799        3.95342530    0.00000000
                                                     1       60.8757030       53.85551820    0.00000000
                                                     2       31.4767147      247.43051330    0.00000000
                                                     2        9.8811751      127.81879760    0.00000000
                                                     2        2.7319874       15.37720460    0.00000000
    2          6
                                   No pseudopotential on this center.
    3          7
                                   No pseudopotential on this center.
    4          7
                                   No pseudopotential on this center.
    5          6
                                   No pseudopotential on this center.
    6          6
                                   No pseudopotential on this center.
    7          6
                                   No pseudopotential on this center.
    8          6
                                   No pseudopotential on this center.
    9          6
                                   No pseudopotential on this center.
   10          6
                                   No pseudopotential on this center.
   11          6
                                   No pseudopotential on this center.
   12          6
                                   No pseudopotential on this center.
   13          6
                                   No pseudopotential on this center.
   14          6
                                   No pseudopotential on this center.
   15          6
                                   No pseudopotential on this center.
   16          6
                                   No pseudopotential on this center.
   17          6
                                   No pseudopotential on this center.
   18          6
                                   No pseudopotential on this center.
   19          1
                                   No pseudopotential on this center.
   20          6
                                   No pseudopotential on this center.
   21          6
                                   No pseudopotential on this center.
   22          9
                                   No pseudopotential on this center.
   23          9
                                   No pseudopotential on this center.
   24          1
                                   No pseudopotential on this center.
   25          6
                                   No pseudopotential on this center.
   26          1
                                   No pseudopotential on this center.
   27          1
                                   No pseudopotential on this center.
   28          6
                                   No pseudopotential on this center.
   29          1
                                   No pseudopotential on this center.
   30          1
                                   No pseudopotential on this center.
   31          6
                                   No pseudopotential on this center.
   32          6
                                   No pseudopotential on this center.
   33          6
                                   No pseudopotential on this center.
   34          6
                                   No pseudopotential on this center.
   35          6
                                   No pseudopotential on this center.
   36          6
                                   No pseudopotential on this center.
   37          6
                                   No pseudopotential on this center.
   38          7
                                   No pseudopotential on this center.
   39          1
                                   No pseudopotential on this center.
   40          9
                                   No pseudopotential on this center.
   41          9
                                   No pseudopotential on this center.
   42          9
                                   No pseudopotential on this center.
   43          9
                                   No pseudopotential on this center.
   44          9
                                   No pseudopotential on this center.
   45          9
                                   No pseudopotential on this center.
   46          1
                                   No pseudopotential on this center.
   47          1
                                   No pseudopotential on this center.
   48          1
                                   No pseudopotential on this center.
   49          1
                                   No pseudopotential on this center.
   50          6
                                   No pseudopotential on this center.
   51          6
                                   No pseudopotential on this center.
   52          1
                                   No pseudopotential on this center.
   53          1
                                   No pseudopotential on this center.
   54          1
                                   No pseudopotential on this center.
   55          1
                                   No pseudopotential on this center.
   56          1
                                   No pseudopotential on this center.
   57          1
                                   No pseudopotential on this center.
 ======================================================================================================
 Ernie: Thresh=  0.10000D-02 Tol=  0.10000D-05 Strict=F.
 AO basis set in the form of general basis input (Overlap normalization):
      1 0
 S   1 1.00       0.000000000000
      0.2547000000D+01  0.1000000000D+01
 S   1 1.00       0.000000000000
      0.1614000000D+01  0.1000000000D+01
 S   1 1.00       0.000000000000
      0.5167000000D+00  0.1000000000D+01
 S   1 1.00       0.000000000000
      0.2651000000D+00  0.1000000000D+01
 S   1 1.00       0.000000000000
      0.5800000000D-01  0.1000000000D+01
 P   1 1.00       0.000000000000
      0.2911000000D+01  0.1000000000D+01
 P   1 1.00       0.000000000000
      0.1836000000D+01  0.1000000000D+01
 P   1 1.00       0.000000000000
      0.5982000000D+00  0.1000000000D+01
 P   1 1.00       0.000000000000
      0.9960000000D-01  0.1000000000D+01
 P   1 1.00       0.000000000000
      0.2900000000D-01  0.1000000000D+01
 D   1 1.00       0.000000000000
      0.1243000000D+01  0.1000000000D+01
 D   1 1.00       0.000000000000
      0.4271000000D+00  0.1000000000D+01
 D   1 1.00       0.000000000000
      0.1370000000D+00  0.1000000000D+01
 F   1 1.00       0.000000000000
      0.9930000000D+00  0.1000000000D+01
 ****
      2 0
 S   5 1.00       0.000000000000
      0.4949460326D+04  0.1979600016D-02
      0.7588258212D+03  0.1484960012D-01
      0.1726233622D+03  0.7625450062D-01
      0.4777742113D+02  0.2872122023D+00
      0.1515140603D+02  0.7104557057D+00
 S   2 1.00       0.000000000000
      0.5394003450D+01  0.7530891890D+00
      0.2110836280D+01  0.2771971960D+00
 S   1 1.00       0.000000000000
      0.5246013700D+00  0.1000000000D+01
 S   1 1.00       0.000000000000
      0.1596472800D+00  0.1000000000D+01
 P   4 1.00       0.000000000000
      0.1897219923D+02  0.1790229981D-01
      0.4187215950D+01  0.1114127988D+00
      0.1213882390D+01  0.3744714961D+00
      0.3869864300D+00  0.6513514932D+00
 P   1 1.00       0.000000000000
      0.1240648900D+00  0.1000000000D+01
 D   1 1.00       0.000000000000
      0.6146728900D+00  0.1000000000D+01
 ****
      3 0
 S   5 1.00       0.000000000000
      0.6711763980D+04  0.1983799850D-02
      0.1029560885D+04  0.1486189887D-01
      0.2346255290D+03  0.7612909423D-01
      0.6508616322D+02  0.2866452783D+00
      0.2068134371D+02  0.7108439462D+00
 S   2 1.00       0.000000000000
      0.7359486200D+01  0.7617356542D+00
      0.2861330580D+01  0.2682841839D+00
 S   1 1.00       0.000000000000
      0.7577255500D+00  0.1000000000D+01
 S   1 1.00       0.000000000000
      0.2227808500D+00  0.1000000000D+01
 P   4 1.00       0.000000000000
      0.2695312900D+02  0.1856159944D-01
      0.6017778740D+01  0.1165760965D+00
      0.1760626400D+01  0.3816427884D+00
      0.5606498300D+00  0.6412378805D+00
 P   1 1.00       0.000000000000
      0.1752561900D+00  0.1000000000D+01
 D   1 1.00       0.000000000000
      0.8959101900D+00  0.1000000000D+01
 ****
      4 0
 S   5 1.00       0.000000000000
      0.6711763980D+04  0.1983799850D-02
      0.1029560885D+04  0.1486189887D-01
      0.2346255290D+03  0.7612909423D-01
      0.6508616322D+02  0.2866452783D+00
      0.2068134371D+02  0.7108439462D+00
 S   2 1.00       0.000000000000
      0.7359486200D+01  0.7617356542D+00
      0.2861330580D+01  0.2682841839D+00
 S   1 1.00       0.000000000000
      0.7577255500D+00  0.1000000000D+01
 S   1 1.00       0.000000000000
      0.2227808500D+00  0.1000000000D+01
 P   4 1.00       0.000000000000
      0.2695312900D+02  0.1856159944D-01
      0.6017778740D+01  0.1165760965D+00
      0.1760626400D+01  0.3816427884D+00
      0.5606498300D+00  0.6412378805D+00
 P   1 1.00       0.000000000000
      0.1752561900D+00  0.1000000000D+01
 D   1 1.00       0.000000000000
      0.8959101900D+00  0.1000000000D+01
 ****
      5 0
 S   5 1.00       0.000000000000
      0.4949460326D+04  0.1979600016D-02
      0.7588258212D+03  0.1484960012D-01
      0.1726233622D+03  0.7625450062D-01
      0.4777742113D+02  0.2872122023D+00
      0.1515140603D+02  0.7104557057D+00
 S   2 1.00       0.000000000000
      0.5394003450D+01  0.7530891890D+00
      0.2110836280D+01  0.2771971960D+00
 S   1 1.00       0.000000000000
      0.5246013700D+00  0.1000000000D+01
 S   1 1.00       0.000000000000
      0.1596472800D+00  0.1000000000D+01
 P   4 1.00       0.000000000000
      0.1897219923D+02  0.1790229981D-01
      0.4187215950D+01  0.1114127988D+00
      0.1213882390D+01  0.3744714961D+00
      0.3869864300D+00  0.6513514932D+00
 P   1 1.00       0.000000000000
      0.1240648900D+00  0.1000000000D+01
 D   1 1.00       0.000000000000
      0.6146728900D+00  0.1000000000D+01
 ****
      6 0
 S   5 1.00       0.000000000000
      0.4949460326D+04  0.1979600016D-02
      0.7588258212D+03  0.1484960012D-01
      0.1726233622D+03  0.7625450062D-01
      0.4777742113D+02  0.2872122023D+00
      0.1515140603D+02  0.7104557057D+00
 S   2 1.00       0.000000000000
      0.5394003450D+01  0.7530891890D+00
      0.2110836280D+01  0.2771971960D+00
 S   1 1.00       0.000000000000
      0.5246013700D+00  0.1000000000D+01
 S   1 1.00       0.000000000000
      0.1596472800D+00  0.1000000000D+01
 P   4 1.00       0.000000000000
      0.1897219923D+02  0.1790229981D-01
      0.4187215950D+01  0.1114127988D+00
      0.1213882390D+01  0.3744714961D+00
      0.3869864300D+00  0.6513514932D+00
 P   1 1.00       0.000000000000
      0.1240648900D+00  0.1000000000D+01
 D   1 1.00       0.000000000000
      0.6146728900D+00  0.1000000000D+01
 ****
      7 0
 S   5 1.00       0.000000000000
      0.4949460326D+04  0.1979600016D-02
      0.7588258212D+03  0.1484960012D-01
      0.1726233622D+03  0.7625450062D-01
      0.4777742113D+02  0.2872122023D+00
      0.1515140603D+02  0.7104557057D+00
 S   2 1.00       0.000000000000
      0.5394003450D+01  0.7530891890D+00
      0.2110836280D+01  0.2771971960D+00
 S   1 1.00       0.000000000000
      0.5246013700D+00  0.1000000000D+01
 S   1 1.00       0.000000000000
      0.1596472800D+00  0.1000000000D+01
 P   4 1.00       0.000000000000
      0.1897219923D+02  0.1790229981D-01
      0.4187215950D+01  0.1114127988D+00
      0.1213882390D+01  0.3744714961D+00
      0.3869864300D+00  0.6513514932D+00
 P   1 1.00       0.000000000000
      0.1240648900D+00  0.1000000000D+01
 D   1 1.00       0.000000000000
      0.6146728900D+00  0.1000000000D+01
 ****
      8 0
 S   5 1.00       0.000000000000
      0.4949460326D+04  0.1979600016D-02
      0.7588258212D+03  0.1484960012D-01
      0.1726233622D+03  0.7625450062D-01
      0.4777742113D+02  0.2872122023D+00
      0.1515140603D+02  0.7104557057D+00
 S   2 1.00       0.000000000000
      0.5394003450D+01  0.7530891890D+00
      0.2110836280D+01  0.2771971960D+00
 S   1 1.00       0.000000000000
      0.5246013700D+00  0.1000000000D+01
 S   1 1.00       0.000000000000
      0.1596472800D+00  0.1000000000D+01
 P   4 1.00       0.000000000000
      0.1897219923D+02  0.1790229981D-01
      0.4187215950D+01  0.1114127988D+00
      0.1213882390D+01  0.3744714961D+00
      0.3869864300D+00  0.6513514932D+00
 P   1 1.00       0.000000000000
      0.1240648900D+00  0.1000000000D+01
 D   1 1.00       0.000000000000
      0.6146728900D+00  0.1000000000D+01
 ****
      9 0
 S   5 1.00       0.000000000000
      0.4949460326D+04  0.1979600016D-02
      0.7588258212D+03  0.1484960012D-01
      0.1726233622D+03  0.7625450062D-01
      0.4777742113D+02  0.2872122023D+00
      0.1515140603D+02  0.7104557057D+00
 S   2 1.00       0.000000000000
      0.5394003450D+01  0.7530891890D+00
      0.2110836280D+01  0.2771971960D+00
 S   1 1.00       0.000000000000
      0.5246013700D+00  0.1000000000D+01
 S   1 1.00       0.000000000000
      0.1596472800D+00  0.1000000000D+01
 P   4 1.00       0.000000000000
      0.1897219923D+02  0.1790229981D-01
      0.4187215950D+01  0.1114127988D+00
      0.1213882390D+01  0.3744714961D+00
      0.3869864300D+00  0.6513514932D+00
 P   1 1.00       0.000000000000
      0.1240648900D+00  0.1000000000D+01
 D   1 1.00       0.000000000000
      0.6146728900D+00  0.1000000000D+01
 ****
     10 0
 S   5 1.00       0.000000000000
      0.4949460326D+04  0.1979600016D-02
      0.7588258212D+03  0.1484960012D-01
      0.1726233622D+03  0.7625450062D-01
      0.4777742113D+02  0.2872122023D+00
      0.1515140603D+02  0.7104557057D+00
 S   2 1.00       0.000000000000
      0.5394003450D+01  0.7530891890D+00
      0.2110836280D+01  0.2771971960D+00
 S   1 1.00       0.000000000000
      0.5246013700D+00  0.1000000000D+01
 S   1 1.00       0.000000000000
      0.1596472800D+00  0.1000000000D+01
 P   4 1.00       0.000000000000
      0.1897219923D+02  0.1790229981D-01
      0.4187215950D+01  0.1114127988D+00
      0.1213882390D+01  0.3744714961D+00
      0.3869864300D+00  0.6513514932D+00
 P   1 1.00       0.000000000000
      0.1240648900D+00  0.1000000000D+01
 D   1 1.00       0.000000000000
      0.6146728900D+00  0.1000000000D+01
 ****
     11 0
 S   5 1.00       0.000000000000
      0.4949460326D+04  0.1979600016D-02
      0.7588258212D+03  0.1484960012D-01
      0.1726233622D+03  0.7625450062D-01
      0.4777742113D+02  0.2872122023D+00
      0.1515140603D+02  0.7104557057D+00
 S   2 1.00       0.000000000000
      0.5394003450D+01  0.7530891890D+00
      0.2110836280D+01  0.2771971960D+00
 S   1 1.00       0.000000000000
      0.5246013700D+00  0.1000000000D+01
 S   1 1.00       0.000000000000
      0.1596472800D+00  0.1000000000D+01
 P   4 1.00       0.000000000000
      0.1897219923D+02  0.1790229981D-01
      0.4187215950D+01  0.1114127988D+00
      0.1213882390D+01  0.3744714961D+00
      0.3869864300D+00  0.6513514932D+00
 P   1 1.00       0.000000000000
      0.1240648900D+00  0.1000000000D+01
 D   1 1.00       0.000000000000
      0.6146728900D+00  0.1000000000D+01
 ****
     12 0
 S   5 1.00       0.000000000000
      0.4949460326D+04  0.1979600016D-02
      0.7588258212D+03  0.1484960012D-01
      0.1726233622D+03  0.7625450062D-01
      0.4777742113D+02  0.2872122023D+00
      0.1515140603D+02  0.7104557057D+00
 S   2 1.00       0.000000000000
      0.5394003450D+01  0.7530891890D+00
      0.2110836280D+01  0.2771971960D+00
 S   1 1.00       0.000000000000
      0.5246013700D+00  0.1000000000D+01
 S   1 1.00       0.000000000000
      0.1596472800D+00  0.1000000000D+01
 P   4 1.00       0.000000000000
      0.1897219923D+02  0.1790229981D-01
      0.4187215950D+01  0.1114127988D+00
      0.1213882390D+01  0.3744714961D+00
      0.3869864300D+00  0.6513514932D+00
 P   1 1.00       0.000000000000
      0.1240648900D+00  0.1000000000D+01
 D   1 1.00       0.000000000000
      0.6146728900D+00  0.1000000000D+01
 ****
     13 0
 S   5 1.00       0.000000000000
      0.4949460326D+04  0.1979600016D-02
      0.7588258212D+03  0.1484960012D-01
      0.1726233622D+03  0.7625450062D-01
      0.4777742113D+02  0.2872122023D+00
      0.1515140603D+02  0.7104557057D+00
 S   2 1.00       0.000000000000
      0.5394003450D+01  0.7530891890D+00
      0.2110836280D+01  0.2771971960D+00
 S   1 1.00       0.000000000000
      0.5246013700D+00  0.1000000000D+01
 S   1 1.00       0.000000000000
      0.1596472800D+00  0.1000000000D+01
 P   4 1.00       0.000000000000
      0.1897219923D+02  0.1790229981D-01
      0.4187215950D+01  0.1114127988D+00
      0.1213882390D+01  0.3744714961D+00
      0.3869864300D+00  0.6513514932D+00
 P   1 1.00       0.000000000000
      0.1240648900D+00  0.1000000000D+01
 D   1 1.00       0.000000000000
      0.6146728900D+00  0.1000000000D+01
 ****
     14 0
 S   5 1.00       0.000000000000
      0.4949460326D+04  0.1979600016D-02
      0.7588258212D+03  0.1484960012D-01
      0.1726233622D+03  0.7625450062D-01
      0.4777742113D+02  0.2872122023D+00
      0.1515140603D+02  0.7104557057D+00
 S   2 1.00       0.000000000000
      0.5394003450D+01  0.7530891890D+00
      0.2110836280D+01  0.2771971960D+00
 S   1 1.00       0.000000000000
      0.5246013700D+00  0.1000000000D+01
 S   1 1.00       0.000000000000
      0.1596472800D+00  0.1000000000D+01
 P   4 1.00       0.000000000000
      0.1897219923D+02  0.1790229981D-01
      0.4187215950D+01  0.1114127988D+00
      0.1213882390D+01  0.3744714961D+00
      0.3869864300D+00  0.6513514932D+00
 P   1 1.00       0.000000000000
      0.1240648900D+00  0.1000000000D+01
 D   1 1.00       0.000000000000
      0.6146728900D+00  0.1000000000D+01
 ****
     15 0
 S   5 1.00       0.000000000000
      0.4949460326D+04  0.1979600016D-02
      0.7588258212D+03  0.1484960012D-01
      0.1726233622D+03  0.7625450062D-01
      0.4777742113D+02  0.2872122023D+00
      0.1515140603D+02  0.7104557057D+00
 S   2 1.00       0.000000000000
      0.5394003450D+01  0.7530891890D+00
      0.2110836280D+01  0.2771971960D+00
 S   1 1.00       0.000000000000
      0.5246013700D+00  0.1000000000D+01
 S   1 1.00       0.000000000000
      0.1596472800D+00  0.1000000000D+01
 P   4 1.00       0.000000000000
      0.1897219923D+02  0.1790229981D-01
      0.4187215950D+01  0.1114127988D+00
      0.1213882390D+01  0.3744714961D+00
      0.3869864300D+00  0.6513514932D+00
 P   1 1.00       0.000000000000
      0.1240648900D+00  0.1000000000D+01
 D   1 1.00       0.000000000000
      0.6146728900D+00  0.1000000000D+01
 ****
     16 0
 S   5 1.00       0.000000000000
      0.4949460326D+04  0.1979600016D-02
      0.7588258212D+03  0.1484960012D-01
      0.1726233622D+03  0.7625450062D-01
      0.4777742113D+02  0.2872122023D+00
      0.1515140603D+02  0.7104557057D+00
 S   2 1.00       0.000000000000
      0.5394003450D+01  0.7530891890D+00
      0.2110836280D+01  0.2771971960D+00
 S   1 1.00       0.000000000000
      0.5246013700D+00  0.1000000000D+01
 S   1 1.00       0.000000000000
      0.1596472800D+00  0.1000000000D+01
 P   4 1.00       0.000000000000
      0.1897219923D+02  0.1790229981D-01
      0.4187215950D+01  0.1114127988D+00
      0.1213882390D+01  0.3744714961D+00
      0.3869864300D+00  0.6513514932D+00
 P   1 1.00       0.000000000000
      0.1240648900D+00  0.1000000000D+01
 D   1 1.00       0.000000000000
      0.6146728900D+00  0.1000000000D+01
 ****
     17 0
 S   5 1.00       0.000000000000
      0.4949460326D+04  0.1979600016D-02
      0.7588258212D+03  0.1484960012D-01
      0.1726233622D+03  0.7625450062D-01
      0.4777742113D+02  0.2872122023D+00
      0.1515140603D+02  0.7104557057D+00
 S   2 1.00       0.000000000000
      0.5394003450D+01  0.7530891890D+00
      0.2110836280D+01  0.2771971960D+00
 S   1 1.00       0.000000000000
      0.5246013700D+00  0.1000000000D+01
 S   1 1.00       0.000000000000
      0.1596472800D+00  0.1000000000D+01
 P   4 1.00       0.000000000000
      0.1897219923D+02  0.1790229981D-01
      0.4187215950D+01  0.1114127988D+00
      0.1213882390D+01  0.3744714961D+00
      0.3869864300D+00  0.6513514932D+00
 P   1 1.00       0.000000000000
      0.1240648900D+00  0.1000000000D+01
 D   1 1.00       0.000000000000
      0.6146728900D+00  0.1000000000D+01
 ****
     18 0
 S   5 1.00       0.000000000000
      0.4949460326D+04  0.1979600016D-02
      0.7588258212D+03  0.1484960012D-01
      0.1726233622D+03  0.7625450062D-01
      0.4777742113D+02  0.2872122023D+00
      0.1515140603D+02  0.7104557057D+00
 S   2 1.00       0.000000000000
      0.5394003450D+01  0.7530891890D+00
      0.2110836280D+01  0.2771971960D+00
 S   1 1.00       0.000000000000
      0.5246013700D+00  0.1000000000D+01
 S   1 1.00       0.000000000000
      0.1596472800D+00  0.1000000000D+01
 P   4 1.00       0.000000000000
      0.1897219923D+02  0.1790229981D-01
      0.4187215950D+01  0.1114127988D+00
      0.1213882390D+01  0.3744714961D+00
      0.3869864300D+00  0.6513514932D+00
 P   1 1.00       0.000000000000
      0.1240648900D+00  0.1000000000D+01
 D   1 1.00       0.000000000000
      0.6146728900D+00  0.1000000000D+01
 ****
     19 0
 S   3 1.00       0.000000000000
      0.1298511484D+02  0.3359341027D-01
      0.1959081340D+01  0.2351667488D+00
      0.4440364900D+00  0.8133307336D+00
 S   1 1.00       0.000000000000
      0.1128269500D+00  0.1000000000D+01
 P   1 1.00       0.000000000000
      0.8030509500D+00  0.1000000000D+01
 ****
     20 0
 S   5 1.00       0.000000000000
      0.4949460326D+04  0.1979600016D-02
      0.7588258212D+03  0.1484960012D-01
      0.1726233622D+03  0.7625450062D-01
      0.4777742113D+02  0.2872122023D+00
      0.1515140603D+02  0.7104557057D+00
 S   2 1.00       0.000000000000
      0.5394003450D+01  0.7530891890D+00
      0.2110836280D+01  0.2771971960D+00
 S   1 1.00       0.000000000000
      0.5246013700D+00  0.1000000000D+01
 S   1 1.00       0.000000000000
      0.1596472800D+00  0.1000000000D+01
 P   4 1.00       0.000000000000
      0.1897219923D+02  0.1790229981D-01
      0.4187215950D+01  0.1114127988D+00
      0.1213882390D+01  0.3744714961D+00
      0.3869864300D+00  0.6513514932D+00
 P   1 1.00       0.000000000000
      0.1240648900D+00  0.1000000000D+01
 D   1 1.00       0.000000000000
      0.6146728900D+00  0.1000000000D+01
 ****
     21 0
 S   5 1.00       0.000000000000
      0.4949460326D+04  0.1979600016D-02
      0.7588258212D+03  0.1484960012D-01
      0.1726233622D+03  0.7625450062D-01
      0.4777742113D+02  0.2872122023D+00
      0.1515140603D+02  0.7104557057D+00
 S   2 1.00       0.000000000000
      0.5394003450D+01  0.7530891890D+00
      0.2110836280D+01  0.2771971960D+00
 S   1 1.00       0.000000000000
      0.5246013700D+00  0.1000000000D+01
 S   1 1.00       0.000000000000
      0.1596472800D+00  0.1000000000D+01
 P   4 1.00       0.000000000000
      0.1897219923D+02  0.1790229981D-01
      0.4187215950D+01  0.1114127988D+00
      0.1213882390D+01  0.3744714961D+00
      0.3869864300D+00  0.6513514932D+00
 P   1 1.00       0.000000000000
      0.1240648900D+00  0.1000000000D+01
 D   1 1.00       0.000000000000
      0.6146728900D+00  0.1000000000D+01
 ****
     22 0
 S   5 1.00       0.000000000000
      0.1124507427D+05  0.1965199949D-02
      0.1726979860D+04  0.1469539962D-01
      0.3942326879D+03  0.7521589804D-01
      0.1095121736D+03  0.2845739926D+00
      0.3482122553D+02  0.7132966814D+00
 S   2 1.00       0.000000000000
      0.1236386969D+02  0.7685929609D+00
      0.4757449420D+01  0.2615090867D+00
 S   1 1.00       0.000000000000
      0.1374001430D+01  0.1000000000D+01
 S   1 1.00       0.000000000000
      0.3951387300D+00  0.1000000000D+01
 P   4 1.00       0.000000000000
      0.4398233925D+02  0.2100549896D-01
      0.9944692460D+01  0.1318565935D+00
      0.2934060790D+01  0.4006828801D+00
      0.9140472500D+00  0.6160200695D+00
 P   1 1.00       0.000000000000
      0.2666449100D+00  0.1000000000D+01
 D   1 1.00       0.000000000000
      0.1689499910D+01  0.1000000000D+01
 ****
     23 0
 S   5 1.00       0.000000000000
      0.1124507427D+05  0.1965199949D-02
      0.1726979860D+04  0.1469539962D-01
      0.3942326879D+03  0.7521589804D-01
      0.1095121736D+03  0.2845739926D+00
      0.3482122553D+02  0.7132966814D+00
 S   2 1.00       0.000000000000
      0.1236386969D+02  0.7685929609D+00
      0.4757449420D+01  0.2615090867D+00
 S   1 1.00       0.000000000000
      0.1374001430D+01  0.1000000000D+01
 S   1 1.00       0.000000000000
      0.3951387300D+00  0.1000000000D+01
 P   4 1.00       0.000000000000
      0.4398233925D+02  0.2100549896D-01
      0.9944692460D+01  0.1318565935D+00
      0.2934060790D+01  0.4006828801D+00
      0.9140472500D+00  0.6160200695D+00
 P   1 1.00       0.000000000000
      0.2666449100D+00  0.1000000000D+01
 D   1 1.00       0.000000000000
      0.1689499910D+01  0.1000000000D+01
 ****
     24 0
 S   3 1.00       0.000000000000
      0.1298511484D+02  0.3359341027D-01
      0.1959081340D+01  0.2351667488D+00
      0.4440364900D+00  0.8133307336D+00
 S   1 1.00       0.000000000000
      0.1128269500D+00  0.1000000000D+01
 P   1 1.00       0.000000000000
      0.8030509500D+00  0.1000000000D+01
 ****
     25 0
 S   5 1.00       0.000000000000
      0.4949460326D+04  0.1979600016D-02
      0.7588258212D+03  0.1484960012D-01
      0.1726233622D+03  0.7625450062D-01
      0.4777742113D+02  0.2872122023D+00
      0.1515140603D+02  0.7104557057D+00
 S   2 1.00       0.000000000000
      0.5394003450D+01  0.7530891890D+00
      0.2110836280D+01  0.2771971960D+00
 S   1 1.00       0.000000000000
      0.5246013700D+00  0.1000000000D+01
 S   1 1.00       0.000000000000
      0.1596472800D+00  0.1000000000D+01
 P   4 1.00       0.000000000000
      0.1897219923D+02  0.1790229981D-01
      0.4187215950D+01  0.1114127988D+00
      0.1213882390D+01  0.3744714961D+00
      0.3869864300D+00  0.6513514932D+00
 P   1 1.00       0.000000000000
      0.1240648900D+00  0.1000000000D+01
 D   1 1.00       0.000000000000
      0.6146728900D+00  0.1000000000D+01
 ****
     26 0
 S   3 1.00       0.000000000000
      0.1298511484D+02  0.3359341027D-01
      0.1959081340D+01  0.2351667488D+00
      0.4440364900D+00  0.8133307336D+00
 S   1 1.00       0.000000000000
      0.1128269500D+00  0.1000000000D+01
 P   1 1.00       0.000000000000
      0.8030509500D+00  0.1000000000D+01
 ****
     27 0
 S   3 1.00       0.000000000000
      0.1298511484D+02  0.3359341027D-01
      0.1959081340D+01  0.2351667488D+00
      0.4440364900D+00  0.8133307336D+00
 S   1 1.00       0.000000000000
      0.1128269500D+00  0.1000000000D+01
 P   1 1.00       0.000000000000
      0.8030509500D+00  0.1000000000D+01
 ****
     28 0
 S   5 1.00       0.000000000000
      0.4949460326D+04  0.1979600016D-02
      0.7588258212D+03  0.1484960012D-01
      0.1726233622D+03  0.7625450062D-01
      0.4777742113D+02  0.2872122023D+00
      0.1515140603D+02  0.7104557057D+00
 S   2 1.00       0.000000000000
      0.5394003450D+01  0.7530891890D+00
      0.2110836280D+01  0.2771971960D+00
 S   1 1.00       0.000000000000
      0.5246013700D+00  0.1000000000D+01
 S   1 1.00       0.000000000000
      0.1596472800D+00  0.1000000000D+01
 P   4 1.00       0.000000000000
      0.1897219923D+02  0.1790229981D-01
      0.4187215950D+01  0.1114127988D+00
      0.1213882390D+01  0.3744714961D+00
      0.3869864300D+00  0.6513514932D+00
 P   1 1.00       0.000000000000
      0.1240648900D+00  0.1000000000D+01
 D   1 1.00       0.000000000000
      0.6146728900D+00  0.1000000000D+01
 ****
     29 0
 S   3 1.00       0.000000000000
      0.1298511484D+02  0.3359341027D-01
      0.1959081340D+01  0.2351667488D+00
      0.4440364900D+00  0.8133307336D+00
 S   1 1.00       0.000000000000
      0.1128269500D+00  0.1000000000D+01
 P   1 1.00       0.000000000000
      0.8030509500D+00  0.1000000000D+01
 ****
     30 0
 S   3 1.00       0.000000000000
      0.1298511484D+02  0.3359341027D-01
      0.1959081340D+01  0.2351667488D+00
      0.4440364900D+00  0.8133307336D+00
 S   1 1.00       0.000000000000
      0.1128269500D+00  0.1000000000D+01
 P   1 1.00       0.000000000000
      0.8030509500D+00  0.1000000000D+01
 ****
     31 0
 S   5 1.00       0.000000000000
      0.4949460326D+04  0.1979600016D-02
      0.7588258212D+03  0.1484960012D-01
      0.1726233622D+03  0.7625450062D-01
      0.4777742113D+02  0.2872122023D+00
      0.1515140603D+02  0.7104557057D+00
 S   2 1.00       0.000000000000
      0.5394003450D+01  0.7530891890D+00
      0.2110836280D+01  0.2771971960D+00
 S   1 1.00       0.000000000000
      0.5246013700D+00  0.1000000000D+01
 S   1 1.00       0.000000000000
      0.1596472800D+00  0.1000000000D+01
 P   4 1.00       0.000000000000
      0.1897219923D+02  0.1790229981D-01
      0.4187215950D+01  0.1114127988D+00
      0.1213882390D+01  0.3744714961D+00
      0.3869864300D+00  0.6513514932D+00
 P   1 1.00       0.000000000000
      0.1240648900D+00  0.1000000000D+01
 D   1 1.00       0.000000000000
      0.6146728900D+00  0.1000000000D+01
 ****
     32 0
 S   5 1.00       0.000000000000
      0.4949460326D+04  0.1979600016D-02
      0.7588258212D+03  0.1484960012D-01
      0.1726233622D+03  0.7625450062D-01
      0.4777742113D+02  0.2872122023D+00
      0.1515140603D+02  0.7104557057D+00
 S   2 1.00       0.000000000000
      0.5394003450D+01  0.7530891890D+00
      0.2110836280D+01  0.2771971960D+00
 S   1 1.00       0.000000000000
      0.5246013700D+00  0.1000000000D+01
 S   1 1.00       0.000000000000
      0.1596472800D+00  0.1000000000D+01
 P   4 1.00       0.000000000000
      0.1897219923D+02  0.1790229981D-01
      0.4187215950D+01  0.1114127988D+00
      0.1213882390D+01  0.3744714961D+00
      0.3869864300D+00  0.6513514932D+00
 P   1 1.00       0.000000000000
      0.1240648900D+00  0.1000000000D+01
 D   1 1.00       0.000000000000
      0.6146728900D+00  0.1000000000D+01
 ****
     33 0
 S   5 1.00       0.000000000000
      0.4949460326D+04  0.1979600016D-02
      0.7588258212D+03  0.1484960012D-01
      0.1726233622D+03  0.7625450062D-01
      0.4777742113D+02  0.2872122023D+00
      0.1515140603D+02  0.7104557057D+00
 S   2 1.00       0.000000000000
      0.5394003450D+01  0.7530891890D+00
      0.2110836280D+01  0.2771971960D+00
 S   1 1.00       0.000000000000
      0.5246013700D+00  0.1000000000D+01
 S   1 1.00       0.000000000000
      0.1596472800D+00  0.1000000000D+01
 P   4 1.00       0.000000000000
      0.1897219923D+02  0.1790229981D-01
      0.4187215950D+01  0.1114127988D+00
      0.1213882390D+01  0.3744714961D+00
      0.3869864300D+00  0.6513514932D+00
 P   1 1.00       0.000000000000
      0.1240648900D+00  0.1000000000D+01
 D   1 1.00       0.000000000000
      0.6146728900D+00  0.1000000000D+01
 ****
     34 0
 S   5 1.00       0.000000000000
      0.4949460326D+04  0.1979600016D-02
      0.7588258212D+03  0.1484960012D-01
      0.1726233622D+03  0.7625450062D-01
      0.4777742113D+02  0.2872122023D+00
      0.1515140603D+02  0.7104557057D+00
 S   2 1.00       0.000000000000
      0.5394003450D+01  0.7530891890D+00
      0.2110836280D+01  0.2771971960D+00
 S   1 1.00       0.000000000000
      0.5246013700D+00  0.1000000000D+01
 S   1 1.00       0.000000000000
      0.1596472800D+00  0.1000000000D+01
 P   4 1.00       0.000000000000
      0.1897219923D+02  0.1790229981D-01
      0.4187215950D+01  0.1114127988D+00
      0.1213882390D+01  0.3744714961D+00
      0.3869864300D+00  0.6513514932D+00
 P   1 1.00       0.000000000000
      0.1240648900D+00  0.1000000000D+01
 D   1 1.00       0.000000000000
      0.6146728900D+00  0.1000000000D+01
 ****
     35 0
 S   5 1.00       0.000000000000
      0.4949460326D+04  0.1979600016D-02
      0.7588258212D+03  0.1484960012D-01
      0.1726233622D+03  0.7625450062D-01
      0.4777742113D+02  0.2872122023D+00
      0.1515140603D+02  0.7104557057D+00
 S   2 1.00       0.000000000000
      0.5394003450D+01  0.7530891890D+00
      0.2110836280D+01  0.2771971960D+00
 S   1 1.00       0.000000000000
      0.5246013700D+00  0.1000000000D+01
 S   1 1.00       0.000000000000
      0.1596472800D+00  0.1000000000D+01
 P   4 1.00       0.000000000000
      0.1897219923D+02  0.1790229981D-01
      0.4187215950D+01  0.1114127988D+00
      0.1213882390D+01  0.3744714961D+00
      0.3869864300D+00  0.6513514932D+00
 P   1 1.00       0.000000000000
      0.1240648900D+00  0.1000000000D+01
 D   1 1.00       0.000000000000
      0.6146728900D+00  0.1000000000D+01
 ****
     36 0
 S   5 1.00       0.000000000000
      0.4949460326D+04  0.1979600016D-02
      0.7588258212D+03  0.1484960012D-01
      0.1726233622D+03  0.7625450062D-01
      0.4777742113D+02  0.2872122023D+00
      0.1515140603D+02  0.7104557057D+00
 S   2 1.00       0.000000000000
      0.5394003450D+01  0.7530891890D+00
      0.2110836280D+01  0.2771971960D+00
 S   1 1.00       0.000000000000
      0.5246013700D+00  0.1000000000D+01
 S   1 1.00       0.000000000000
      0.1596472800D+00  0.1000000000D+01
 P   4 1.00       0.000000000000
      0.1897219923D+02  0.1790229981D-01
      0.4187215950D+01  0.1114127988D+00
      0.1213882390D+01  0.3744714961D+00
      0.3869864300D+00  0.6513514932D+00
 P   1 1.00       0.000000000000
      0.1240648900D+00  0.1000000000D+01
 D   1 1.00       0.000000000000
      0.6146728900D+00  0.1000000000D+01
 ****
     37 0
 S   5 1.00       0.000000000000
      0.4949460326D+04  0.1979600016D-02
      0.7588258212D+03  0.1484960012D-01
      0.1726233622D+03  0.7625450062D-01
      0.4777742113D+02  0.2872122023D+00
      0.1515140603D+02  0.7104557057D+00
 S   2 1.00       0.000000000000
      0.5394003450D+01  0.7530891890D+00
      0.2110836280D+01  0.2771971960D+00
 S   1 1.00       0.000000000000
      0.5246013700D+00  0.1000000000D+01
 S   1 1.00       0.000000000000
      0.1596472800D+00  0.1000000000D+01
 P   4 1.00       0.000000000000
      0.1897219923D+02  0.1790229981D-01
      0.4187215950D+01  0.1114127988D+00
      0.1213882390D+01  0.3744714961D+00
      0.3869864300D+00  0.6513514932D+00
 P   1 1.00       0.000000000000
      0.1240648900D+00  0.1000000000D+01
 D   1 1.00       0.000000000000
      0.6146728900D+00  0.1000000000D+01
 ****
     38 0
 S   5 1.00       0.000000000000
      0.6711763980D+04  0.1983799850D-02
      0.1029560885D+04  0.1486189887D-01
      0.2346255290D+03  0.7612909423D-01
      0.6508616322D+02  0.2866452783D+00
      0.2068134371D+02  0.7108439462D+00
 S   2 1.00       0.000000000000
      0.7359486200D+01  0.7617356542D+00
      0.2861330580D+01  0.2682841839D+00
 S   1 1.00       0.000000000000
      0.7577255500D+00  0.1000000000D+01
 S   1 1.00       0.000000000000
      0.2227808500D+00  0.1000000000D+01
 P   4 1.00       0.000000000000
      0.2695312900D+02  0.1856159944D-01
      0.6017778740D+01  0.1165760965D+00
      0.1760626400D+01  0.3816427884D+00
      0.5606498300D+00  0.6412378805D+00
 P   1 1.00       0.000000000000
      0.1752561900D+00  0.1000000000D+01
 D   1 1.00       0.000000000000
      0.8959101900D+00  0.1000000000D+01
 ****
     39 0
 S   3 1.00       0.000000000000
      0.1298511484D+02  0.3359341027D-01
      0.1959081340D+01  0.2351667488D+00
      0.4440364900D+00  0.8133307336D+00
 S   1 1.00       0.000000000000
      0.1128269500D+00  0.1000000000D+01
 P   1 1.00       0.000000000000
      0.8030509500D+00  0.1000000000D+01
 ****
     40 0
 S   5 1.00       0.000000000000
      0.1124507427D+05  0.1965199949D-02
      0.1726979860D+04  0.1469539962D-01
      0.3942326879D+03  0.7521589804D-01
      0.1095121736D+03  0.2845739926D+00
      0.3482122553D+02  0.7132966814D+00
 S   2 1.00       0.000000000000
      0.1236386969D+02  0.7685929609D+00
      0.4757449420D+01  0.2615090867D+00
 S   1 1.00       0.000000000000
      0.1374001430D+01  0.1000000000D+01
 S   1 1.00       0.000000000000
      0.3951387300D+00  0.1000000000D+01
 P   4 1.00       0.000000000000
      0.4398233925D+02  0.2100549896D-01
      0.9944692460D+01  0.1318565935D+00
      0.2934060790D+01  0.4006828801D+00
      0.9140472500D+00  0.6160200695D+00
 P   1 1.00       0.000000000000
      0.2666449100D+00  0.1000000000D+01
 D   1 1.00       0.000000000000
      0.1689499910D+01  0.1000000000D+01
 ****
     41 0
 S   5 1.00       0.000000000000
      0.1124507427D+05  0.1965199949D-02
      0.1726979860D+04  0.1469539962D-01
      0.3942326879D+03  0.7521589804D-01
      0.1095121736D+03  0.2845739926D+00
      0.3482122553D+02  0.7132966814D+00
 S   2 1.00       0.000000000000
      0.1236386969D+02  0.7685929609D+00
      0.4757449420D+01  0.2615090867D+00
 S   1 1.00       0.000000000000
      0.1374001430D+01  0.1000000000D+01
 S   1 1.00       0.000000000000
      0.3951387300D+00  0.1000000000D+01
 P   4 1.00       0.000000000000
      0.4398233925D+02  0.2100549896D-01
      0.9944692460D+01  0.1318565935D+00
      0.2934060790D+01  0.4006828801D+00
      0.9140472500D+00  0.6160200695D+00
 P   1 1.00       0.000000000000
      0.2666449100D+00  0.1000000000D+01
 D   1 1.00       0.000000000000
      0.1689499910D+01  0.1000000000D+01
 ****
     42 0
 S   5 1.00       0.000000000000
      0.1124507427D+05  0.1965199949D-02
      0.1726979860D+04  0.1469539962D-01
      0.3942326879D+03  0.7521589804D-01
      0.1095121736D+03  0.2845739926D+00
      0.3482122553D+02  0.7132966814D+00
 S   2 1.00       0.000000000000
      0.1236386969D+02  0.7685929609D+00
      0.4757449420D+01  0.2615090867D+00
 S   1 1.00       0.000000000000
      0.1374001430D+01  0.1000000000D+01
 S   1 1.00       0.000000000000
      0.3951387300D+00  0.1000000000D+01
 P   4 1.00       0.000000000000
      0.4398233925D+02  0.2100549896D-01
      0.9944692460D+01  0.1318565935D+00
      0.2934060790D+01  0.4006828801D+00
      0.9140472500D+00  0.6160200695D+00
 P   1 1.00       0.000000000000
      0.2666449100D+00  0.1000000000D+01
 D   1 1.00       0.000000000000
      0.1689499910D+01  0.1000000000D+01
 ****
     43 0
 S   5 1.00       0.000000000000
      0.1124507427D+05  0.1965199949D-02
      0.1726979860D+04  0.1469539962D-01
      0.3942326879D+03  0.7521589804D-01
      0.1095121736D+03  0.2845739926D+00
      0.3482122553D+02  0.7132966814D+00
 S   2 1.00       0.000000000000
      0.1236386969D+02  0.7685929609D+00
      0.4757449420D+01  0.2615090867D+00
 S   1 1.00       0.000000000000
      0.1374001430D+01  0.1000000000D+01
 S   1 1.00       0.000000000000
      0.3951387300D+00  0.1000000000D+01
 P   4 1.00       0.000000000000
      0.4398233925D+02  0.2100549896D-01
      0.9944692460D+01  0.1318565935D+00
      0.2934060790D+01  0.4006828801D+00
      0.9140472500D+00  0.6160200695D+00
 P   1 1.00       0.000000000000
      0.2666449100D+00  0.1000000000D+01
 D   1 1.00       0.000000000000
      0.1689499910D+01  0.1000000000D+01
 ****
     44 0
 S   5 1.00       0.000000000000
      0.1124507427D+05  0.1965199949D-02
      0.1726979860D+04  0.1469539962D-01
      0.3942326879D+03  0.7521589804D-01
      0.1095121736D+03  0.2845739926D+00
      0.3482122553D+02  0.7132966814D+00
 S   2 1.00       0.000000000000
      0.1236386969D+02  0.7685929609D+00
      0.4757449420D+01  0.2615090867D+00
 S   1 1.00       0.000000000000
      0.1374001430D+01  0.1000000000D+01
 S   1 1.00       0.000000000000
      0.3951387300D+00  0.1000000000D+01
 P   4 1.00       0.000000000000
      0.4398233925D+02  0.2100549896D-01
      0.9944692460D+01  0.1318565935D+00
      0.2934060790D+01  0.4006828801D+00
      0.9140472500D+00  0.6160200695D+00
 P   1 1.00       0.000000000000
      0.2666449100D+00  0.1000000000D+01
 D   1 1.00       0.000000000000
      0.1689499910D+01  0.1000000000D+01
 ****
     45 0
 S   5 1.00       0.000000000000
      0.1124507427D+05  0.1965199949D-02
      0.1726979860D+04  0.1469539962D-01
      0.3942326879D+03  0.7521589804D-01
      0.1095121736D+03  0.2845739926D+00
      0.3482122553D+02  0.7132966814D+00
 S   2 1.00       0.000000000000
      0.1236386969D+02  0.7685929609D+00
      0.4757449420D+01  0.2615090867D+00
 S   1 1.00       0.000000000000
      0.1374001430D+01  0.1000000000D+01
 S   1 1.00       0.000000000000
      0.3951387300D+00  0.1000000000D+01
 P   4 1.00       0.000000000000
      0.4398233925D+02  0.2100549896D-01
      0.9944692460D+01  0.1318565935D+00
      0.2934060790D+01  0.4006828801D+00
      0.9140472500D+00  0.6160200695D+00
 P   1 1.00       0.000000000000
      0.2666449100D+00  0.1000000000D+01
 D   1 1.00       0.000000000000
      0.1689499910D+01  0.1000000000D+01
 ****
     46 0
 S   3 1.00       0.000000000000
      0.1298511484D+02  0.3359341027D-01
      0.1959081340D+01  0.2351667488D+00
      0.4440364900D+00  0.8133307336D+00
 S   1 1.00       0.000000000000
      0.1128269500D+00  0.1000000000D+01
 P   1 1.00       0.000000000000
      0.8030509500D+00  0.1000000000D+01
 ****
     47 0
 S   3 1.00       0.000000000000
      0.1298511484D+02  0.3359341027D-01
      0.1959081340D+01  0.2351667488D+00
      0.4440364900D+00  0.8133307336D+00
 S   1 1.00       0.000000000000
      0.1128269500D+00  0.1000000000D+01
 P   1 1.00       0.000000000000
      0.8030509500D+00  0.1000000000D+01
 ****
     48 0
 S   3 1.00       0.000000000000
      0.1298511484D+02  0.3359341027D-01
      0.1959081340D+01  0.2351667488D+00
      0.4440364900D+00  0.8133307336D+00
 S   1 1.00       0.000000000000
      0.1128269500D+00  0.1000000000D+01
 P   1 1.00       0.000000000000
      0.8030509500D+00  0.1000000000D+01
 ****
     49 0
 S   3 1.00       0.000000000000
      0.1298511484D+02  0.3359341027D-01
      0.1959081340D+01  0.2351667488D+00
      0.4440364900D+00  0.8133307336D+00
 S   1 1.00       0.000000000000
      0.1128269500D+00  0.1000000000D+01
 P   1 1.00       0.000000000000
      0.8030509500D+00  0.1000000000D+01
 ****
     50 0
 S   5 1.00       0.000000000000
      0.4949460326D+04  0.1979600016D-02
      0.7588258212D+03  0.1484960012D-01
      0.1726233622D+03  0.7625450062D-01
      0.4777742113D+02  0.2872122023D+00
      0.1515140603D+02  0.7104557057D+00
 S   2 1.00       0.000000000000
      0.5394003450D+01  0.7530891890D+00
      0.2110836280D+01  0.2771971960D+00
 S   1 1.00       0.000000000000
      0.5246013700D+00  0.1000000000D+01
 S   1 1.00       0.000000000000
      0.1596472800D+00  0.1000000000D+01
 P   4 1.00       0.000000000000
      0.1897219923D+02  0.1790229981D-01
      0.4187215950D+01  0.1114127988D+00
      0.1213882390D+01  0.3744714961D+00
      0.3869864300D+00  0.6513514932D+00
 P   1 1.00       0.000000000000
      0.1240648900D+00  0.1000000000D+01
 D   1 1.00       0.000000000000
      0.6146728900D+00  0.1000000000D+01
 ****
     51 0
 S   5 1.00       0.000000000000
      0.4949460326D+04  0.1979600016D-02
      0.7588258212D+03  0.1484960012D-01
      0.1726233622D+03  0.7625450062D-01
      0.4777742113D+02  0.2872122023D+00
      0.1515140603D+02  0.7104557057D+00
 S   2 1.00       0.000000000000
      0.5394003450D+01  0.7530891890D+00
      0.2110836280D+01  0.2771971960D+00
 S   1 1.00       0.000000000000
      0.5246013700D+00  0.1000000000D+01
 S   1 1.00       0.000000000000
      0.1596472800D+00  0.1000000000D+01
 P   4 1.00       0.000000000000
      0.1897219923D+02  0.1790229981D-01
      0.4187215950D+01  0.1114127988D+00
      0.1213882390D+01  0.3744714961D+00
      0.3869864300D+00  0.6513514932D+00
 P   1 1.00       0.000000000000
      0.1240648900D+00  0.1000000000D+01
 D   1 1.00       0.000000000000
      0.6146728900D+00  0.1000000000D+01
 ****
     52 0
 S   3 1.00       0.000000000000
      0.1298511484D+02  0.3359341027D-01
      0.1959081340D+01  0.2351667488D+00
      0.4440364900D+00  0.8133307336D+00
 S   1 1.00       0.000000000000
      0.1128269500D+00  0.1000000000D+01
 P   1 1.00       0.000000000000
      0.8030509500D+00  0.1000000000D+01
 ****
     53 0
 S   3 1.00       0.000000000000
      0.1298511484D+02  0.3359341027D-01
      0.1959081340D+01  0.2351667488D+00
      0.4440364900D+00  0.8133307336D+00
 S   1 1.00       0.000000000000
      0.1128269500D+00  0.1000000000D+01
 P   1 1.00       0.000000000000
      0.8030509500D+00  0.1000000000D+01
 ****
     54 0
 S   3 1.00       0.000000000000
      0.1298511484D+02  0.3359341027D-01
      0.1959081340D+01  0.2351667488D+00
      0.4440364900D+00  0.8133307336D+00
 S   1 1.00       0.000000000000
      0.1128269500D+00  0.1000000000D+01
 P   1 1.00       0.000000000000
      0.8030509500D+00  0.1000000000D+01
 ****
     55 0
 S   3 1.00       0.000000000000
      0.1298511484D+02  0.3359341027D-01
      0.1959081340D+01  0.2351667488D+00
      0.4440364900D+00  0.8133307336D+00
 S   1 1.00       0.000000000000
      0.1128269500D+00  0.1000000000D+01
 P   1 1.00       0.000000000000
      0.8030509500D+00  0.1000000000D+01
 ****
     56 0
 S   3 1.00       0.000000000000
      0.1298511484D+02  0.3359341027D-01
      0.1959081340D+01  0.2351667488D+00
      0.4440364900D+00  0.8133307336D+00
 S   1 1.00       0.000000000000
      0.1128269500D+00  0.1000000000D+01
 P   1 1.00       0.000000000000
      0.8030509500D+00  0.1000000000D+01
 ****
     57 0
 S   3 1.00       0.000000000000
      0.1298511484D+02  0.3359341027D-01
      0.1959081340D+01  0.2351667488D+00
      0.4440364900D+00  0.8133307336D+00
 S   1 1.00       0.000000000000
      0.1128269500D+00  0.1000000000D+01
 P   1 1.00       0.000000000000
      0.8030509500D+00  0.1000000000D+01
 ****

 There are   757 symmetry adapted cartesian basis functions of A   symmetry.
 There are   712 symmetry adapted basis functions of A   symmetry.
   712 basis functions,  1337 primitive gaussians,   757 cartesian basis functions
   148 alpha electrons      148 beta electrons
       nuclear repulsion energy      4615.4494918417 Hartrees.
 IExCor=  402 DFT=T Ex+Corr=B3LYP ExCW=0 ScaHFX=  0.200000
 ScaDFX=  0.800000  0.720000  1.000000  0.810000 ScalE2=  1.000000  1.000000
 IRadAn=      5 IRanWt=     -1 IRanGd=            0 ICorTp=0 IEmpDi=  4
 NAtoms=   57 NActive=   57 NUniq=   57 SFac= 1.00D+00 NAtFMM=   60 NAOKFM=F Big=F
 Integral buffers will be    131072 words long.
 Raffenetti 2 integral format.
 Two-electron integral symmetry is turned on.
 Using the following non-standard input for PCM:
 Radii=UFF
 --- end of non-standard input.
 ------------------------------------------------------------------------------
 Polarizable Continuum Model (PCM)
 =================================
 Model                : PCM (using non-symmetric T matrix).
 Atomic radii         : UFF (Universal Force Field).
 Polarization charges : Total charges.
 Charge compensation  : None.
 Solution method      : On-the-fly selection.
 Cavity type          : Scaled VdW (van der Waals Surface) (Alpha=1.100).
 Cavity algorithm     : GePol (No added spheres)
                        Default sphere list used, NSphG=   57.
                        Lebedev-Laikov grids with approx.  5.0 points / Ang**2.
                        Smoothing algorithm: Karplus/York (Gamma=1.0000).
                        Polarization charges: spherical gaussians, with
                                              point-specific exponents (IZeta= 3).
                        Self-potential: point-specific (ISelfS= 7).
                        Self-field    : sphere-specific E.n sum rule (ISelfD= 2).
 Solvent              : n,n-DiMethylFormamide, Eps=  37.219000 Eps(inf)=   2.046330
 ------------------------------------------------------------------------------
 GePol: Number of generator spheres                  =      57
 GePol: Total number of spheres                      =      57
 GePol: Number of exposed spheres                    =      57 (100.00%)
 GePol: Number of points                             =    4625
 GePol: Average weight of points                     =       0.13
 GePol: Minimum weight of points                     =   0.84D-10
 GePol: Maximum weight of points                     =    0.21838
 GePol: Number of points with low weight             =     240
 GePol: Fraction of low-weight points (<1% of avg)   =       5.19%
 GePol: Cavity surface area                          =    588.921 Ang**2
 GePol: Cavity volume                                =    659.404 Ang**3
 Leave Link  301 at Fri May 19 11:11:59 2023, MaxMem= 13421772800 cpu:         8.3
 (Enter /home/scr/programs/g09/l302.exe)
 NPDir=0 NMtPBC=     1 NCelOv=     1 NCel=       1 NClECP=     1 NCelD=      1
         NCelK=      1 NCelE2=     1 NClLst=     1 CellRange=     0.0.
 One-electron integrals computed using PRISM.
   1 Symmetry operations used in ECPInt.
 ECPInt:  NShTT=   57291 NPrTT=  234984 LenC2=   37807 LenP2D=   94326.
 LDataN:  DoStor=T MaxTD1= 7 Len=  274
 NBasis=   712 RedAO= T EigKep=  1.67D-04  NBF=   712
 NBsUse=   712 1.00D-06 EigRej= -1.00D+00 NBFU=   712
 Precomputing XC quadrature grid using
 IXCGrd= 4 IRadAn=           5 IRanWt=          -1 IRanGd=           0 AccXCQ= 0.00D+00.
 Defaulting to unpruned grid for atomic number  78.
 Generated NRdTot=       0 NPtTot=           0 NUsed=           0 NTot=          32
 NSgBfM=   706   706   706   706   706 MxSgAt=    57 MxSgA2=    57.
 Leave Link  302 at Fri May 19 11:12:05 2023, MaxMem= 13421772800 cpu:       185.0
 (Enter /home/scr/programs/g09/l303.exe)
 DipDrv:  MaxL=1.
 Leave Link  303 at Fri May 19 11:12:06 2023, MaxMem= 13421772800 cpu:        11.5
 (Enter /home/scr/programs/g09/l401.exe)
 ExpMin= 2.90D-02 ExpMax= 1.12D+04 ExpMxC= 1.73D+03 IAcc=3 IRadAn=         5 AccDes= 0.00D+00
 Harris functional with IExCor=  402 and IRadAn=       5 diagonalized for initial guess.
 HarFok:  IExCor=  402 AccDes= 0.00D+00 IRadAn=         5 IDoV= 1 UseB2=F ITyADJ=14
 ICtDFT=  3500011 ScaDFX=  1.000000  1.000000  1.000000  1.000000
 Defaulting to unpruned grid for atomic number  78.
 Defaulting to unpruned grid for atomic number  78.
 Defaulting to unpruned grid for atomic number  78.
 Defaulting to unpruned grid for atomic number  78.
 Defaulting to unpruned grid for atomic number  78.
 Defaulting to unpruned grid for atomic number  78.
 Defaulting to unpruned grid for atomic number  78.
 Defaulting to unpruned grid for atomic number  78.
 Defaulting to unpruned grid for atomic number  78.
 Defaulting to unpruned grid for atomic number  78.
 Defaulting to unpruned grid for atomic number  78.
 Defaulting to unpruned grid for atomic number  78.
 Defaulting to unpruned grid for atomic number  78.
 Defaulting to unpruned grid for atomic number  78.
 Defaulting to unpruned grid for atomic number  78.
 Defaulting to unpruned grid for atomic number  78.
 Defaulting to unpruned grid for atomic number  78.
 Defaulting to unpruned grid for atomic number  78.
 Defaulting to unpruned grid for atomic number  78.
 Defaulting to unpruned grid for atomic number  78.
 Defaulting to unpruned grid for atomic number  78.
 Defaulting to unpruned grid for atomic number  78.
 Defaulting to unpruned grid for atomic number  78.
 Defaulting to unpruned grid for atomic number  78.
 Defaulting to unpruned grid for atomic number  78.
 Defaulting to unpruned grid for atomic number  78.
 Defaulting to unpruned grid for atomic number  78.
 Defaulting to unpruned grid for atomic number  78.
 Defaulting to unpruned grid for atomic number  78.
 Defaulting to unpruned grid for atomic number  78.
 Defaulting to unpruned grid for atomic number  78.
 Defaulting to unpruned grid for atomic number  78.
 FoFCou: FMM=F IPFlag=           0 FMFlag=      100000 FMFlg1=           0
         NFxFlg=           0 DoJE=T BraDBF=F KetDBF=T FulRan=T
         wScrn=  0.000000 ICntrl=     500 IOpCl=  0 I1Cent=   200000004 NGrid=           0
         NMat0=    1 NMatS0=      1 NMatT0=    0 NMatD0=    1 NMtDS0=    0 NMtDT0=    0
 Petite list used in FoFCou.
 Harris En= -2159.47535622731    
 JPrj=0 DoOrth=F DoCkMO=F.
 Leave Link  401 at Fri May 19 11:12:11 2023, MaxMem= 13421772800 cpu:       165.3
 (Enter /home/scr/programs/g09/l502.exe)
 Closed shell SCF:
 Using DIIS extrapolation, IDIIS=  1040.
 Integral symmetry usage will be decided dynamically.
 IVT=     1791603 IEndB=     1791603 NGot= 13421772800 MDV= 13420595404
 LenX= 13420595404 LenY= 13420021598
 Requested convergence on RMS density matrix=1.00D-08 within 200 cycles.
 Requested convergence on MAX density matrix=1.00D-06.
 Requested convergence on             energy=1.00D-06.
 No special actions if energy rises.
 Fock matrices will be formed incrementally for  20 cycles.

 Cycle   1  Pass 1  IDiag  1:
 FoFJK:  IHMeth= 1 ICntrl=       0 DoSepK=F KAlg= 0 I1Cent=   0 FoldK=F
 IRaf= 550000000 NMat=   1 IRICut=       1 DoRegI=T DoRafI=F ISym2E= 0.
 FoFCou: FMM=F IPFlag=           0 FMFlag=      100000 FMFlg1=           0
[...]
      3   0.424270D+04
      4  -0.355366D+03
      5  -0.525158D+01
      6  -0.605004D+02
      7  -0.200320D+03
      8   0.371950D+04
      9  -0.351058D+02
     10  -0.460748D+01
     11  -0.583214D+02
     12  -0.147782D+00
     13  -0.375277D+03
     14  -0.434253D+01
     15  -0.644541D+02
     16  -0.431847D+02
     17  -0.191093D+00
     18  -0.429741D+01

 ----------------------------------------------------------------------

 Electric dipole moment (input orientation):
 (Debye = 10**-18 statcoulomb cm , SI units = C m)
                  (au)            (Debye)         (10**-30 SI)
   Tot        0.152968D+01      0.388807D+01      0.129692D+02
   x          0.151977D+01      0.386286D+01      0.128851D+02
   y         -0.114261D-01     -0.290423D-01     -0.968746D-01
   z          0.173531D+00      0.441071D+00      0.147126D+01

 Dipole polarizability, Alpha (input orientation).
 (esu units = cm**3 , SI units = C**2 m**2 J**-1)
 Alpha(0;0):
               (au)            (10**-24 esu)      (10**-40 SI)
   iso        0.633920D+03      0.939373D+02      0.104519D+03
   aniso      0.617655D+03      0.915271D+02      0.101838D+03
   xx         0.944698D+03      0.139990D+03      0.155760D+03
   yx        -0.457483D+00     -0.677920D-01     -0.754288D-01
   yy         0.712438D+03      0.105572D+03      0.117465D+03
   zx         0.282735D+01      0.418970D+00      0.466167D+00
   zy         0.283032D+01      0.419410D+00      0.466656D+00
   zz         0.244624D+03      0.362495D+02      0.403330D+02
 Alpha(-w;w) w= 1907.0nm:
                  (au)         (10**-24 esu)      (10**-40 SI)
   iso        0.530951D+03      0.786789D+02      0.875420D+02
   aniso      0.554633D+03      0.821881D+02      0.914466D+02
   xx         0.817787D+03      0.121183D+03      0.134835D+03
   yx        -0.470149D+00     -0.696689D-01     -0.775171D-01
   yy         0.589585D+03      0.873674D+02      0.972094D+02
   zx         0.197577D+01      0.292779D+00      0.325761D+00
   zy         0.215497D+01      0.319334D+00      0.355307D+00
   zz         0.185483D+03      0.274857D+02      0.305820D+02

 First dipole hyperpolarizability, Beta (input orientation).
 ||, _|_  parallel and perpendicular components, (z) with respect to z axis,
 vector components x,y,z.  Values do not include the 1/n! factor of 1/2.
 (esu units = statvolt**-1 cm**4 , SI units = C**3 m**3 J**-2)
 Beta(0;0,0):
               (au)            (10**-30 esu)      (10**-50 SI)
   || (z)    -0.209701D+03     -0.181165D+01     -0.672378D+00
   _|_(z)    -0.699004D+02     -0.603885D+00     -0.224126D+00
   x          0.161510D+06      0.139532D+04      0.517861D+03
   y         -0.520586D+03     -0.449746D+01     -0.166919D+01
   z         -0.104851D+04     -0.905827D+01     -0.336189D+01
   ||         0.323029D+05      0.279072D+03      0.103575D+03
   xxx        0.518685D+05      0.448104D+03      0.166309D+03
   xxy       -0.162817D+03     -0.140661D+01     -0.522049D+00
   yxy        0.205105D+04      0.177195D+02      0.657642D+01
   yyy       -0.108375D+02     -0.936271D-01     -0.347488D-01
   xxz       -0.253890D+03     -0.219341D+01     -0.814062D+00
   yxz       -0.177933D+02     -0.153720D+00     -0.570518D-01
   yyz       -0.739281D+02     -0.638681D+00     -0.237040D+00
   zxz       -0.827576D+02     -0.714961D+00     -0.265351D+00
   zyz        0.125346D+00      0.108289D-02      0.401905D-03
   zzz       -0.216841D+02     -0.187334D+00     -0.695270D-01
 Beta(-w;w,0) w= 1907.0nm:
                  (au)         (10**-30 esu)      (10**-50 SI)
   || (z)    -0.188503D+03     -0.162852D+01     -0.604408D+00
   _|_(z)    -0.482530D+02     -0.416869D+00     -0.154717D+00
   x          0.144534D+06      0.124866D+04      0.463427D+03
   y         -0.473684D+03     -0.409226D+01     -0.151880D+01
   z         -0.942513D+03     -0.814258D+01     -0.302204D+01
   ||         0.289075D+05      0.249738D+03      0.926878D+02
   xxx        0.460458D+05      0.397800D+03      0.147639D+03
   yxx       -0.142587D+03     -0.123184D+01     -0.457187D+00
   yyx        0.195215D+04      0.168651D+02      0.625930D+01
   zxx       -0.259936D+03     -0.224564D+01     -0.833448D+00
   zyx       -0.114544D+02     -0.989573D-01     -0.367270D-01
   zzx       -0.242056D+02     -0.209117D+00     -0.776117D-01
   xxy       -0.141423D+03     -0.122179D+01     -0.453454D+00
   yxy        0.228994D+04      0.197833D+02      0.734238D+01
   yyy       -0.155619D+02     -0.134443D+00     -0.498970D-01
   zxy       -0.114967D+02     -0.993223D-01     -0.368625D-01
   zyy       -0.608002D+02     -0.525266D+00     -0.194947D+00
   zzy       -0.171153D+00     -0.147863D-02     -0.548778D-03
   xxz       -0.225321D+03     -0.194660D+01     -0.722461D+00
   yxz       -0.109292D+02     -0.944196D-01     -0.350429D-01
   yyz       -0.516714D+02     -0.446401D+00     -0.165677D+00
   zxz       -0.558239D+02     -0.482275D+00     -0.178991D+00
   zyz       -0.114716D+00     -0.991057D-03     -0.367821D-03
   zzz       -0.801621D+01     -0.692538D-01     -0.257029D-01
 Beta(-2w;w,w) w= 1907.0nm:
                  (au)         (10**-30 esu)      (10**-50 SI)
   || (z)    -0.256000D+03     -0.221164D+01     -0.820827D+00
   _|_(z)    -0.940145D+02     -0.812212D+00     -0.301444D+00
   x          0.206435D+06      0.178344D+04      0.661906D+03
   y         -0.701997D+03     -0.606471D+01     -0.225086D+01
   z         -0.128000D+04     -0.110582D+02     -0.410413D+01
   ||         0.412881D+05      0.356697D+03      0.132384D+03
   xxx        0.649668D+05      0.561262D+03      0.208307D+03
   yxx       -0.200320D+03     -0.173061D+01     -0.642299D+00
   zxx       -0.375277D+03     -0.324210D+01     -0.120327D+01
   xyx       -0.197915D+03     -0.170983D+01     -0.634587D+00
   yyx        0.371950D+04      0.321335D+02      0.119260D+02
   zyx       -0.434253D+01     -0.375160D-01     -0.139237D-01
   xyy        0.424270D+04      0.366536D+02      0.136036D+02
   yyy       -0.351058D+02     -0.303287D+00     -0.112562D+00
   zyy       -0.644541D+02     -0.556833D+00     -0.206663D+00
   xzx       -0.355366D+03     -0.307008D+01     -0.113943D+01
   yzx       -0.460748D+01     -0.398051D-01     -0.147733D-01
   zzx       -0.431847D+02     -0.373082D+00     -0.138466D+00
   xzy       -0.525158D+01     -0.453696D-01     -0.168385D-01
   yzy       -0.583214D+02     -0.503851D+00     -0.186999D+00
   zzy       -0.191093D+00     -0.165089D-02     -0.612712D-03
   xzz       -0.605004D+02     -0.522676D+00     -0.193986D+00
   yzz       -0.147782D+00     -0.127672D-02     -0.473843D-03
   zzz       -0.429741D+01     -0.371263D-01     -0.137790D-01

 ----------------------------------------------------------------------

 Dipole orientation:
    78          0.26041490          0.00753840          1.88766242
     6         -0.08471438         -0.00155124         -1.96993265
     7          0.30538445         -3.82034434          2.56208311
     7          0.33607113          3.83845646          2.54537819
     6          0.21692470          5.62714992          0.75298881
     6          0.16761624         -5.61494314          0.77696462
     6          0.53147637          4.51408163          5.06179252
     6          0.50422347         -4.48750818          5.08036295
     6          0.64064603         -2.33138456          6.81421663
     6          0.65367620          2.36430738          6.80450043
     6          0.86151573          2.30358230          9.44756392
     6          0.59544718          7.07832044          5.72825846
     6          0.46973145          8.92628789          3.86622043
     6          0.28088135          8.19257225          1.32994900
     6          0.84942065         -2.26072110          9.45693478
     6          0.95936660          0.02388630         10.77687200
     6          0.56571234         -7.04978232          5.75527264
     6          0.42579899         -8.90392638          3.90033311
     1          0.72818241         -7.56092749          7.74078592
     6          0.22001741         -8.17834245          1.36296404
     6          0.54821436          0.01422069          5.56461063
     9          0.95237241         -4.40437886         10.80286846
     9          0.97529170          4.45224275         10.78472516
     1          0.01742711         -4.93801957         -1.16349891
     6          0.01000113        -10.13897696         -0.69101293
     1          0.48216866        -10.89804648          4.42675020
     1          0.06028008          4.94399422         -1.18485806
     6          0.19731776         10.14673665         -0.73932229
     1          0.74207397          7.59558993          7.71337857
     1          0.51179720         10.92209820          4.38706749
     6         -0.37444992         -0.01055489         -4.28887896
     6         -0.74210219         -0.02085318         -6.96754429
     6         -0.98357334          2.24608541         -8.36215863
     6         -0.90559934         -2.29862241         -8.35590228
     6         -1.37143319          2.25081516        -10.96092304
     6         -1.29222339         -2.32371550        -10.95477328
     6         -1.54392100         -0.04197533        -12.34933821
     7         -1.93780062         -0.05219414        -14.92211241
     1          1.12218821          0.02765011         12.83035876
     9         -1.49709876         11.96902897         -0.22144451
     9         -0.42127443          9.13818762         -2.98414401
     9          2.44758554         11.30010133         -1.02332532
     9          0.22240871         -9.12504946         -3.00748537
     9         -2.22617652        -11.34912415         -0.59695693
     9          1.81258793        -11.91639457         -0.46181500
     1         -0.86737463          4.05235938         -7.36615225
     1         -1.54571115          4.06278289        -11.92271222
     1         -1.40262786         -4.14312637        -11.91206260
     1         -0.72660939         -4.09710905         -7.35511623
     6         -2.19574880          2.31293076        -16.28479068
     6         -2.11319461         -2.42848861        -16.27850823
     1         -0.48989752          3.50705177        -16.11921073
     1         -3.81858666          3.44049003        -15.60677391
     1         -2.49738107          1.91712507        -18.29674151
     1         -3.69231581         -3.61207213        -15.59305844
     1         -0.36475342         -3.55972307        -16.11476057
     1         -2.43431412         -2.04890789        -18.29057970

 Electric dipole moment (dipole orientation):
 (Debye = 10**-18 statcoulomb cm , SI units = C m)
                  (au)            (Debye)         (10**-30 SI)
   Tot        0.152968D+01      0.388807D+01      0.129692D+02
   x          0.000000D+00      0.000000D+00      0.000000D+00
   y          0.000000D+00      0.000000D+00      0.000000D+00
   z          0.152968D+01      0.388807D+01      0.129692D+02

 Dipole polarizability, Alpha (dipole orientation).
 (esu units = cm**3 , SI units = C**2 m**2 J**-1)
 Alpha(0;0):
               (au)            (10**-24 esu)      (10**-40 SI)
   iso        0.633920D+03      0.939373D+02      0.104519D+03
   aniso      0.617655D+03      0.915271D+02      0.101838D+03
   xx         0.252986D+03      0.374887D+02      0.417118D+02
   yx         0.767466D+00      0.113727D+00      0.126538D+00
   yy         0.712459D+03      0.105576D+03      0.117469D+03
   zx         0.761808D+02      0.112888D+02      0.125605D+02
   zy         0.103113D+01      0.152798D+00      0.170010D+00
   zz         0.936315D+03      0.138748D+03      0.154378D+03
 Alpha(-w;w) w= 1907.0nm:
                  (au)         (10**-24 esu)      (10**-40 SI)
   iso        0.530951D+03      0.786789D+02      0.875420D+02
   aniso      0.554633D+03      0.821881D+02      0.914466D+02
   xx         0.193170D+03      0.286249D+02      0.318495D+02
   yx         0.965954D+00      0.143140D+00      0.159264D+00
   yy         0.589598D+03      0.873695D+02      0.972116D+02
   zx         0.693664D+02      0.102790D+02      0.114370D+02
   zy         0.962131D+00      0.142573D+00      0.158634D+00
   zz         0.810085D+03      0.120042D+03      0.133565D+03

 First dipole hyperpolarizability, Beta (dipole orientation).
 ||, _|_  parallel and perpendicular components, (z) with respect to z axis,
 vector components x,y,z.  Values do not include the 1/n! factor of 1/2.
 (esu units = statvolt**-1 cm**4 , SI units = C**3 m**3 J**-2)
 Beta(0;0,0):
               (au)            (10**-30 esu)      (10**-50 SI)
   || (z)     0.320696D+05      0.277057D+03      0.102827D+03
   _|_(z)     0.106899D+05      0.923522D+02      0.342756D+02
   x          0.193684D+05      0.167328D+03      0.621022D+02
   y          0.548085D+03      0.473503D+01      0.175736D+01
   z          0.160348D+06      0.138528D+04      0.514134D+03
   ||         0.323029D+05      0.279072D+03      0.103575D+03
   xxx        0.791043D+02      0.683400D+00      0.253637D+00
   xxy        0.103659D+02      0.895532D-01      0.332368D-01
   yxy        0.306536D+03      0.264823D+01      0.982864D+00
   yyy        0.285028D+02      0.246242D+00      0.913903D-01
   xxz        0.638836D+03      0.551905D+01      0.204834D+01
   yxz        0.512894D+02      0.443100D+00      0.164452D+00
   yyz        0.202886D+04      0.175278D+02      0.650526D+01
   zxz        0.607051D+04      0.524444D+02      0.194642D+02
   zyz        0.143826D+03      0.124255D+01      0.461159D+00
   zzz        0.507817D+05      0.438714D+03      0.162825D+03
 Beta(-w;w,0) w= 1907.0nm:
                  (au)         (10**-30 esu)      (10**-50 SI)
   || (z)     0.286986D+05      0.247934D+03      0.920181D+02
   _|_(z)     0.946646D+04      0.817829D+02      0.303529D+02
   x          0.173367D+05      0.149776D+03      0.555877D+02
   y          0.482624D+03      0.416950D+01      0.154747D+01
   z          0.143493D+06      0.123967D+04      0.460091D+03
   ||         0.289075D+05      0.249738D+03      0.926878D+02
   xxx        0.695424D+02      0.600792D+00      0.222978D+00
   yxx        0.846060D+01      0.730930D-01      0.271277D-01
   yyx        0.273113D+03      0.235949D+01      0.875700D+00
   zxx        0.588610D+03      0.508513D+01      0.188730D+01
   zyx        0.439520D+02      0.379711D+00      0.140926D+00
   zzx        0.538411D+04      0.465145D+02      0.172634D+02
   xxy        0.906850D+01      0.783448D-01      0.290769D-01
   yxy        0.320509D+03      0.276895D+01      0.102767D+01
   yyy        0.266693D+02      0.230402D+00      0.855115D-01
   zxy        0.445252D+02      0.384663D+00      0.142764D+00
   zyy        0.226782D+04      0.195922D+02      0.727145D+01
   zzy        0.124733D+03      0.107759D+01      0.399938D+00
   xxz        0.623935D+03      0.539031D+01      0.200056D+01
   yxz        0.418877D+02      0.361877D+00      0.134307D+00
   yyz        0.193326D+04      0.167019D+02      0.619874D+01
   zxz        0.541492D+04      0.467807D+02      0.173622D+02
   zyz        0.125947D+03      0.108808D+01      0.403831D+00
   zzz        0.450743D+05      0.389407D+03      0.144525D+03
 Beta(-2w;w,w) w= 1907.0nm:
                  (au)         (10**-30 esu)      (10**-50 SI)
   || (z)     0.409913D+05      0.354133D+03      0.131433D+03
   _|_(z)     0.138303D+05      0.119483D+03      0.443451D+02
   x          0.246958D+05      0.213353D+03      0.791838D+02
   y          0.664379D+03      0.573972D+01      0.213024D+01
   z          0.204957D+06      0.177067D+04      0.657165D+03
   ||         0.412881D+05      0.356697D+03      0.132384D+03
   xxx        0.966635D+02      0.835097D+00      0.309938D+00
   yxx        0.104287D+02      0.900962D-01      0.334383D-01
   zxx        0.851667D+03      0.735774D+01      0.273075D+01
   xyx        0.110412D+02      0.953875D-01      0.354021D-01
   yyx        0.480246D+03      0.414895D+01      0.153984D+01
   zyx        0.585938D+02      0.506205D+00      0.187873D+00
   xyy        0.545682D+03      0.471427D+01      0.174965D+01
   yyy        0.413892D+02      0.357570D+00      0.132709D+00
   zyy        0.420748D+04      0.363493D+02      0.134907D+02
   xzx        0.871090D+03      0.752554D+01      0.279303D+01
   yzx        0.540889D+02      0.467286D+00      0.173429D+00
   zzx        0.762728D+04      0.658937D+02      0.244558D+02
   xzy        0.537393D+02      0.464266D+00      0.172308D+00
   yzy        0.368838D+04      0.318647D+02      0.118263D+02
   zzy        0.168758D+03      0.145793D+01      0.541098D+00
   xzz        0.764511D+04      0.660478D+02      0.245130D+02
   yzz        0.170186D+03      0.147027D+01      0.545677D+00
   zzz        0.635929D+05      0.549393D+03      0.203902D+03

 ----------------------------------------------------------------------
 1\1\GINC-NEQC29\SP\RB3LYP\Gen\C28H17F8N3Pt1\GUEST\19-May-2023\0\\#p B3
 LYP/gen gfinput pseudo=read Integral(Grid=UltraFine,Acc2E=12) scf=maxc
 ycle=200 Polar=(DCSHG) CPHF=RdFreq scrf=(iefpcm,read,solvent=n,n-DiMet
 hylFormamide)\\Primeira Hiperpolarizabilidade\\0,1\Pt,0,1.008098,-0.00
 2554,-0.023564\C,0,-1.040778,0.006667,-0.073725\N,0,1.351872,-2.030588
 ,-0.021851\N,0,1.371945,2.022246,-0.008714\C,0,0.428756,2.975399,-0.04
 6602\C,0,0.398749,-2.973631,-0.063676\C,0,2.709059,2.370496,0.042286\C
 ,0,2.685437,-2.392871,0.022148\C,0,3.612802,-1.258329,0.063032\C,0,3.6
 25038,1.226484,0.074159\C,0,5.026887,1.184637,0.123314\C,0,3.072337,3.
 724956,0.058798\C,0,2.092345,4.709726,0.020417\C,0,0.74498,4.330839,-0
 .035451\C,0,5.014989,-1.230647,0.112194\C,0,5.723602,-0.026575,0.14265
 8\C,0,3.034924,-3.751151,0.020208\C,0,2.044754,-4.725434,-0.024916\H,0
 ,4.086755,-4.028899,0.051962\C,0,0.700942,-4.332187,-0.06618\C,0,2.958
 548,-0.012537,0.045884\F,0,5.721231,-2.369922,0.130392\F,0,5.744306,2.
 316718,0.152261\H,0,-0.628075,-2.608296,-0.098527\C,0,-0.398457,-5.362
 28,-0.086817\H,0,2.317868,-5.782506,-0.030833\H,0,-0.601877,2.621014,-
 0.083278\C,0,-0.341058,5.372771,-0.108014\H,0,4.126637,3.99134,0.10292
 3\H,0,2.375744,5.7639,0.037457\C,0,-2.277388,0.010047,-0.060642\C,0,-3
 .707803,0.013889,-0.028194\C,0,-4.447523,1.218102,0.023999\C,0,-4.4555
 8,-1.186483,-0.034584\C,0,-5.837091,1.229509,0.071927\C,0,-5.845235,-1
 .190852,0.01257\C,0,-6.585491,0.021157,0.070201\N,0,-7.961809,0.02453,
 0.122795\H,0,6.813007,-0.032126,0.180343\F,0,-0.164121,6.329015,0.8211
 11\F,0,-1.561973,4.845788,0.078463\F,0,-0.351158,5.992134,-1.303574\F,
 0,-1.600001,-4.815854,-0.333542\F,0,-0.487575,-6.010889,1.089708\F,0,-
 0.175967,-6.29735,-1.027787\H,0,-3.910527,2.170366,0.029839\H,0,-6.346
 824,2.1915,0.112978\H,0,-6.361574,-2.1502,0.005956\H,0,-3.925014,-2.14
 1478,-0.075718\C,0,-8.685382,1.280514,0.185956\C,0,-8.693844,-1.228145
 ,0.124189\H,0,-8.491668,1.917746,-0.696229\H,0,-8.422404,1.868759,1.08
 4316\H,0,-9.762669,1.077962,0.222194\H,0,-8.432484,-1.862718,0.990876\
 H,0,-8.506737,-1.821219,-0.789689\H,0,-9.76963,-1.020469,0.17373\\Vers
 ion=EM64L-G09RevD.01\State=1-A\HF=-2159.7741049\RMSD=6.800e-09\Dipole=
 1.5197662,-0.0114261,0.1735308\Polar=944.6982654,-0.4574833,712.438466
 ,2.827351,2.830318,244.6239725\HyperPolar=51868.5107831,-162.816535,20
 51.0541275,-10.837452,-253.8896473,-17.7933035,-73.9280969,-82.7576222
 ,0.1253462,-21.6840761\Quadrupole=34.7759567,-7.5196288,-27.2563279,-0
 .1297134,-1.0119756,0.7815174\PG=C01 [X(C28H17F8N3Pt1)]\\@


 CLIMB THE MOUNTAINS AND GET THEIR GOOD TIDINGS.
 NATURE'S PEACE WILL FLOW INTO YOU AS SUNSHINE FLOWS INTO TREES.
 THE WINDS WILL BLOW THEIR OWN FRESHNESS INTO YOU, 
 AND CARES WILL DROP OFF LIKE AUTUMN LEAVES.

                                         -- JOHN MUIR
 Job cpu time:       0 days 23 hours 15 minutes 30.1 seconds.
 File lengths (MBytes):  RWF=   4252 Int=      0 D2E=      0 Chk=     24 Scr=      1
 Normal termination of Gaussian 09 at Fri May 19 11:55:50 2023.
