 Entering Gaussian System, Link 0=g16
 Input=/home/nqtcm/NLOMILENA/OPT_B3LYP_LANL2TZF_def2SVP_ONL_B3LYP_jorgeDZP_def2SVP_IEFPCM.com
 Output=/home/nqtcm/NLOMILENA/OPT_B3LYP_LANL2TZF_def2SVP_ONL_B3LYP_jorgeDZP_def2SVP_IEFPCM.log
 Initial command:
 /scr/programas/g16/l1.exe "/scr/nqtcm/Gau-18400.inp" -scrdir="/scr/nqtcm/"
 Entering Link 1 = /scr/programas/g16/l1.exe PID=     18402.
  
 Copyright (c) 1988-2019, Gaussian, Inc.  All Rights Reserved.
  
 This is part of the Gaussian(R) 16 program.  It is based on
 the Gaussian(R) 09 system (copyright 2009, Gaussian, Inc.),
 the Gaussian(R) 03 system (copyright 2003, Gaussian, Inc.),
 the Gaussian(R) 98 system (copyright 1998, Gaussian, Inc.),
 the Gaussian(R) 94 system (copyright 1995, Gaussian, Inc.),
 the Gaussian 92(TM) system (copyright 1992, Gaussian, Inc.),
 the Gaussian 90(TM) system (copyright 1990, Gaussian, Inc.),
 the Gaussian 88(TM) system (copyright 1988, Gaussian, Inc.),
 the Gaussian 86(TM) system (copyright 1986, Carnegie Mellon
 University), and the Gaussian 82(TM) system (copyright 1983,
 Carnegie Mellon University). Gaussian is a federally registered
 trademark of Gaussian, Inc.
  
 This software contains proprietary and confidential information,
 including trade secrets, belonging to Gaussian, Inc.
  
 This software is provided under written license and may be
 used, copied, transmitted, or stored only in accord with that
 written license.
  
 The following legend is applicable only to US Government
 contracts under FAR:
  
                    RESTRICTED RIGHTS LEGEND
  
 Use, reproduction and disclosure by the US Government is
 subject to restrictions as set forth in subparagraphs (a)
 and (c) of the Commercial Computer Software - Restricted
 Rights clause in FAR 52.227-19.
  
 Gaussian, Inc.
 340 Quinnipiac St., Bldg. 40, Wallingford CT 06492
  
  
 ---------------------------------------------------------------
 Warning -- This program may not be used in any manner that
 competes with the business of Gaussian, Inc. or will provide
 assistance to any competitor of Gaussian, Inc.  The licensee
 of this program is prohibited from giving any competitor of
 Gaussian, Inc. access to this program.  By using this program,
 the user acknowledges that Gaussian, Inc. is engaged in the
 business of creating and licensing software in the field of
 computational chemistry and represents and warrants to the
 licensee that it is not a competitor of Gaussian, Inc. and that
 it will not use this program in any manner prohibited above.
 ---------------------------------------------------------------
  

 Cite this work as:
 Gaussian 16, Revision C.01,
 M. J. Frisch, G. W. Trucks, H. B. Schlegel, G. E. Scuseria, 
 M. A. Robb, J. R. Cheeseman, G. Scalmani, V. Barone, 
 G. A. Petersson, H. Nakatsuji, X. Li, M. Caricato, A. V. Marenich, 
 J. Bloino, B. G. Janesko, R. Gomperts, B. Mennucci, H. P. Hratchian, 
 J. V. Ortiz, A. F. Izmaylov, J. L. Sonnenberg, D. Williams-Young, 
 F. Ding, F. Lipparini, F. Egidi, J. Goings, B. Peng, A. Petrone, 
 T. Henderson, D. Ranasinghe, V. G. Zakrzewski, J. Gao, N. Rega, 
 G. Zheng, W. Liang, M. Hada, M. Ehara, K. Toyota, R. Fukuda, 
 J. Hasegawa, M. Ishida, T. Nakajima, Y. Honda, O. Kitao, H. Nakai, 
 T. Vreven, K. Throssell, J. A. Montgomery, Jr., J. E. Peralta, 
 F. Ogliaro, M. J. Bearpark, J. J. Heyd, E. N. Brothers, K. N. Kudin, 
 V. N. Staroverov, T. A. Keith, R. Kobayashi, J. Normand, 
 K. Raghavachari, A. P. Rendell, J. C. Burant, S. S. Iyengar, 
 J. Tomasi, M. Cossi, J. M. Millam, M. Klene, C. Adamo, R. Cammi, 
 J. W. Ochterski, R. L. Martin, K. Morokuma, O. Farkas, 
 J. B. Foresman, and D. J. Fox, Gaussian, Inc., Wallingford CT, 2019.
 
 ******************************************
 Gaussian 16:  EM64L-G16RevC.01  3-Jul-2019
                12-Apr-2023 
 ******************************************
 %chk=OPT_B3LYP_LANL2TZF_def2SVP_ONL_B3LYP_jorgeDZP_def2SVP_IEFPCM.chk
 %mem=60Gb
 %nproc=12
 Will use up to   12 processors via shared memory.
 ----------------------------------------------------------------------
 #p B3LYP/gen gfinput Integral(Grid=UltraFine,Acc2E=12) scf=maxcycle=20
 0 Polar=(DCSHG) CPHF=RdFreq scrf=(iefpcm,solvent=n,n-DiMethylFormamide
 )
 ----------------------------------------------------------------------
 1/38=1,83=1,172=1/1;
 2/12=2,17=6,18=5,40=1/2;
 3/5=7,11=2,24=10,25=1,27=12,30=1,70=2201,72=148,74=-5,75=-5/1,2,3;
 4//1;
 5/5=2,7=200,38=5,53=148,87=12,98=1/2;
 8/6=4,10=90,11=11,87=12/1;
 10/6=20001,13=10,72=3,87=12/2;
 6/7=2,8=2,9=2,10=2,28=1,87=12/1;
 99/5=1,9=1/99;
 Leave Link    1 at Wed Apr 12 11:54:27 2023, MaxMem=  8053063680 cpu:               0.5 elap:               0.0
 (Enter /scr/programas/g16/l101.exe)
 ------------------------------
 Primeira Hiperpolarizabilidade
 ------------------------------
 Symbolic Z-matrix:
 Charge =  0 Multiplicity = 1
 Pt                    1.0081   -0.00255  -0.02356 
 C                    -1.04078   0.00667  -0.07373 
 N                     1.35187  -2.03059  -0.02185 
 N                     1.37195   2.02225  -0.00871 
 C                     0.42876   2.9754   -0.0466 
 C                     0.39875  -2.97363  -0.06368 
 C                     2.70906   2.3705    0.04229 
 C                     2.68544  -2.39287   0.02215 
 C                     3.6128   -1.25833   0.06303 
 C                     3.62504   1.22648   0.07416 
 C                     5.02689   1.18464   0.12331 
 C                     3.07234   3.72496   0.0588 
 C                     2.09234   4.70973   0.02042 
 C                     0.74498   4.33084  -0.03545 
 C                     5.01499  -1.23065   0.11219 
 C                     5.7236   -0.02658   0.14266 
 C                     3.03492  -3.75115   0.02021 
 C                     2.04475  -4.72543  -0.02492 
 H                     4.08676  -4.0289    0.05196 
 C                     0.70094  -4.33219  -0.06618 
 C                     2.95855  -0.01254   0.04588 
 F                     5.72123  -2.36992   0.13039 
 F                     5.74431   2.31672   0.15226 
 H                    -0.62808  -2.6083   -0.09853 
 C                    -0.39846  -5.36228  -0.08682 
 H                     2.31787  -5.78251  -0.03083 
 H                    -0.60188   2.62101  -0.08328 
 C                    -0.34106   5.37277  -0.10801 
 H                     4.12664   3.99134   0.10292 
 H                     2.37574   5.7639    0.03746 
 C                    -2.27739   0.01005  -0.06064 
 C                    -3.7078    0.01389  -0.02819 
 C                    -4.44752   1.2181    0.024 
 C                    -4.45558  -1.18648  -0.03458 
 C                    -5.83709   1.22951   0.07193 
 C                    -5.84524  -1.19085   0.01257 
 C                    -6.58549   0.02116   0.0702 
 N                    -7.96181   0.02453   0.1228 
 H                     6.81301  -0.03213   0.18034 
 F                    -0.16412   6.32902   0.82111 
 F                    -1.56197   4.84579   0.07846 
 F                    -0.35116   5.99213  -1.30357 
 F                    -1.6      -4.81585  -0.33354 
 F                    -0.48758  -6.01089   1.08971 
 F                    -0.17597  -6.29735  -1.02779 
 H                    -3.91053   2.17037   0.02984 
 H                    -6.34682   2.1915    0.11298 
 H                    -6.36157  -2.1502    0.00596 
 H                    -3.92501  -2.14148  -0.07572 
 C                    -8.68538   1.28051   0.18596 
 C                    -8.69384  -1.22815   0.12419 
 H                    -8.49167   1.91775  -0.69623 
 H                    -8.4224    1.86876   1.08432 
 H                    -9.76267   1.07796   0.22219 
 H                    -8.43248  -1.86272   0.99088 
 H                    -8.50674  -1.82122  -0.78969 
 H                    -9.76963  -1.02047   0.17373 
 
 ITRead=  0  0  0  0  0  0  0  0  0  0  0  0  0  0  0  0  0  0  0  0
 ITRead=  0  0  0  0  0  0  0  0  0  0  0  0  0  0  0  0  0  0  0  0
 ITRead=  0  0  0  0  0  0  0  0  0  0  0  0  0  0  0  0  0
 MicOpt= -1 -1 -1 -1 -1 -1 -1 -1 -1 -1 -1 -1 -1 -1 -1 -1 -1 -1 -1 -1
 MicOpt= -1 -1 -1 -1 -1 -1 -1 -1 -1 -1 -1 -1 -1 -1 -1 -1 -1 -1 -1 -1
 MicOpt= -1 -1 -1 -1 -1 -1 -1 -1 -1 -1 -1 -1 -1 -1 -1 -1 -1
 NAtoms=     57 NQM=       57 NQMF=       0 NMMI=      0 NMMIF=      0
                NMic=       0 NMicF=      0.
                    Isotopes and Nuclear Properties:
 (Nuclear quadrupole moments (NQMom) in fm**2, nuclear magnetic moments (NMagM)
  in nuclear magnetons)

  Atom         1           2           3           4           5           6           7           8           9          10
 IAtWgt=         195          12          14          14          12          12          12          12          12          12
 AtmWgt= 194.9648000  12.0000000  14.0030740  14.0030740  12.0000000  12.0000000  12.0000000  12.0000000  12.0000000  12.0000000
 NucSpn=           1           0           2           2           0           0           0           0           0           0
 AtZEff=  -0.0000000  -0.0000000  -0.0000000  -0.0000000  -0.0000000  -0.0000000  -0.0000000  -0.0000000  -0.0000000  -0.0000000
 NQMom=    0.0000000   0.0000000   2.0440000   2.0440000   0.0000000   0.0000000   0.0000000   0.0000000   0.0000000   0.0000000
 NMagM=    0.6095000   0.0000000   0.4037610   0.4037610   0.0000000   0.0000000   0.0000000   0.0000000   0.0000000   0.0000000
 AtZNuc=  78.0000000   6.0000000   7.0000000   7.0000000   6.0000000   6.0000000   6.0000000   6.0000000   6.0000000   6.0000000

  Atom        11          12          13          14          15          16          17          18          19          20
 IAtWgt=          12          12          12          12          12          12          12          12           1          12
 AtmWgt=  12.0000000  12.0000000  12.0000000  12.0000000  12.0000000  12.0000000  12.0000000  12.0000000   1.0078250  12.0000000
 NucSpn=           0           0           0           0           0           0           0           0           1           0
 AtZEff=  -0.0000000  -0.0000000  -0.0000000  -0.0000000  -0.0000000  -0.0000000  -0.0000000  -0.0000000  -0.0000000  -0.0000000
 NQMom=    0.0000000   0.0000000   0.0000000   0.0000000   0.0000000   0.0000000   0.0000000   0.0000000   0.0000000   0.0000000
 NMagM=    0.0000000   0.0000000   0.0000000   0.0000000   0.0000000   0.0000000   0.0000000   0.0000000   2.7928460   0.0000000
 AtZNuc=   6.0000000   6.0000000   6.0000000   6.0000000   6.0000000   6.0000000   6.0000000   6.0000000   1.0000000   6.0000000

  Atom        21          22          23          24          25          26          27          28          29          30
 IAtWgt=          12          19          19           1          12           1           1          12           1           1
 AtmWgt=  12.0000000  18.9984033  18.9984033   1.0078250  12.0000000   1.0078250   1.0078250  12.0000000   1.0078250   1.0078250
 NucSpn=           0           1           1           1           0           1           1           0           1           1
 AtZEff=  -0.0000000  -0.0000000  -0.0000000  -0.0000000  -0.0000000  -0.0000000  -0.0000000  -0.0000000  -0.0000000  -0.0000000
 NQMom=    0.0000000   0.0000000   0.0000000   0.0000000   0.0000000   0.0000000   0.0000000   0.0000000   0.0000000   0.0000000
 NMagM=    0.0000000   2.6288670   2.6288670   2.7928460   0.0000000   2.7928460   2.7928460   0.0000000   2.7928460   2.7928460
 AtZNuc=   6.0000000   9.0000000   9.0000000   1.0000000   6.0000000   1.0000000   1.0000000   6.0000000   1.0000000   1.0000000

  Atom        31          32          33          34          35          36          37          38          39          40
 IAtWgt=          12          12          12          12          12          12          12          14           1          19
 AtmWgt=  12.0000000  12.0000000  12.0000000  12.0000000  12.0000000  12.0000000  12.0000000  14.0030740   1.0078250  18.9984033
 NucSpn=           0           0           0           0           0           0           0           2           1           1
 AtZEff=  -0.0000000  -0.0000000  -0.0000000  -0.0000000  -0.0000000  -0.0000000  -0.0000000  -0.0000000  -0.0000000  -0.0000000
 NQMom=    0.0000000   0.0000000   0.0000000   0.0000000   0.0000000   0.0000000   0.0000000   2.0440000   0.0000000   0.0000000
 NMagM=    0.0000000   0.0000000   0.0000000   0.0000000   0.0000000   0.0000000   0.0000000   0.4037610   2.7928460   2.6288670
 AtZNuc=   6.0000000   6.0000000   6.0000000   6.0000000   6.0000000   6.0000000   6.0000000   7.0000000   1.0000000   9.0000000

  Atom        41          42          43          44          45          46          47          48          49          50
 IAtWgt=          19          19          19          19          19           1           1           1           1          12
 AtmWgt=  18.9984033  18.9984033  18.9984033  18.9984033  18.9984033   1.0078250   1.0078250   1.0078250   1.0078250  12.0000000
 NucSpn=           1           1           1           1           1           1           1           1           1           0
 AtZEff=  -0.0000000  -0.0000000  -0.0000000  -0.0000000  -0.0000000  -0.0000000  -0.0000000  -0.0000000  -0.0000000  -0.0000000
 NQMom=    0.0000000   0.0000000   0.0000000   0.0000000   0.0000000   0.0000000   0.0000000   0.0000000   0.0000000   0.0000000
 NMagM=    2.6288670   2.6288670   2.6288670   2.6288670   2.6288670   2.7928460   2.7928460   2.7928460   2.7928460   0.0000000
 AtZNuc=   9.0000000   9.0000000   9.0000000   9.0000000   9.0000000   1.0000000   1.0000000   1.0000000   1.0000000   6.0000000

  Atom        51          52          53          54          55          56          57
 IAtWgt=          12           1           1           1           1           1           1
 AtmWgt=  12.0000000   1.0078250   1.0078250   1.0078250   1.0078250   1.0078250   1.0078250
 NucSpn=           0           1           1           1           1           1           1
 AtZEff=  -0.0000000  -0.0000000  -0.0000000  -0.0000000  -0.0000000  -0.0000000  -0.0000000
 NQMom=    0.0000000   0.0000000   0.0000000   0.0000000   0.0000000   0.0000000   0.0000000
 NMagM=    0.0000000   2.7928460   2.7928460   2.7928460   2.7928460   2.7928460   2.7928460
 AtZNuc=   6.0000000   1.0000000   1.0000000   1.0000000   1.0000000   1.0000000   1.0000000
 Using perturbation frequencies:    0.000000    0.023893
 Leave Link  101 at Wed Apr 12 11:54:27 2023, MaxMem=  8053063680 cpu:               1.4 elap:               0.1
 (Enter /scr/programas/g16/l202.exe)
 Stoichiometry    C28H17F8N3Pt
 Framework group  C1[X(C28H17F8N3Pt)]
 Deg. of freedom   165
 Full point group                 C1      NOp   1
 Largest Abelian subgroup         C1      NOp   1
 Largest concise Abelian subgroup C1      NOp   1
                         Standard orientation:                         
 ---------------------------------------------------------------------
 Center     Atomic      Atomic             Coordinates (Angstroms)
 Number     Number       Type             X           Y           Z
 ---------------------------------------------------------------------
      1         78           0       -1.008098   -0.002554    0.023564
      2          6           0        1.040778    0.006667    0.073725
      3          7           0       -1.351872   -2.030588    0.021851
      4          7           0       -1.371945    2.022246    0.008714
      5          6           0       -0.428755    2.975399    0.046602
      6          6           0       -0.398749   -2.973631    0.063676
      7          6           0       -2.709059    2.370497   -0.042286
      8          6           0       -2.685437   -2.392870   -0.022148
      9          6           0       -3.612802   -1.258328   -0.063032
     10          6           0       -3.625038    1.226485   -0.074159
     11          6           0       -5.026887    1.184638   -0.123314
     12          6           0       -3.072336    3.724957   -0.058798
     13          6           0       -2.092344    4.709726   -0.020417
     14          6           0       -0.744979    4.330839    0.035451
     15          6           0       -5.014989   -1.230646   -0.112194
     16          6           0       -5.723602   -0.026574   -0.142658
     17          6           0       -3.034925   -3.751150   -0.020208
     18          6           0       -2.044755   -4.725434    0.024916
     19          1           0       -4.086756   -4.028898   -0.051962
     20          6           0       -0.700943   -4.332187    0.066180
     21          6           0       -2.958548   -0.012536   -0.045884
     22          9           0       -5.721231   -2.369921   -0.130392
     23          9           0       -5.744306    2.316719   -0.152261
     24          1           0        0.628075   -2.608296    0.098527
     25          6           0        0.398456   -5.362280    0.086817
     26          1           0       -2.317869   -5.782506    0.030833
     27          1           0        0.601877    2.621014    0.083278
     28          6           0        0.341059    5.372771    0.108014
     29          1           0       -4.126636    3.991341   -0.102923
     30          1           0       -2.375743    5.763900   -0.037457
     31          6           0        2.277388    0.010047    0.060642
     32          6           0        3.707803    0.013889    0.028194
     33          6           0        4.447523    1.218101   -0.023999
     34          6           0        4.455580   -1.186484    0.034584
     35          6           0        5.837091    1.229508   -0.071927
     36          6           0        5.845235   -1.190853   -0.012570
     37          6           0        6.585491    0.021156   -0.070201
     38          7           0        7.961809    0.024529   -0.122795
     39          1           0       -6.813007   -0.032125   -0.180343
     40          9           0        0.164122    6.329015   -0.821111
     41          9           0        1.561974    4.845788   -0.078463
     42          9           0        0.351159    5.992134    1.303574
     43          9           0        1.600000   -4.815854    0.333542
     44          9           0        0.487574   -6.010889   -1.089708
     45          9           0        0.175966   -6.297350    1.027787
     46          1           0        3.910527    2.170366   -0.029839
     47          1           0        6.346824    2.191499   -0.112978
     48          1           0        6.361574   -2.150201   -0.005956
     49          1           0        3.925014   -2.141478    0.075718
     50          6           0        8.685382    1.280513   -0.185956
     51          6           0        8.693844   -1.228146   -0.124189
     52          1           0        8.491668    1.917745    0.696229
     53          1           0        8.422404    1.868758   -1.084316
     54          1           0        9.762669    1.077961   -0.222194
     55          1           0        8.432484   -1.862719   -0.990876
     56          1           0        8.506737   -1.821220    0.789689
     57          1           0        9.769630   -1.020470   -0.173730
 ---------------------------------------------------------------------
 Rotational constants (GHZ):           0.0734786           0.0557567           0.0320899
 Leave Link  202 at Wed Apr 12 11:54:27 2023, MaxMem=  8053063680 cpu:               0.1 elap:               0.0
 (Enter /scr/programas/g16/l301.exe)
 General basis read from cards:  (5D, 7F)
 Centers:      19     24     26     27     29     30     39     46     47     48
 Centers:      49     52     53     54     55     56     57
 S 3 1.00
     Exponent=  1.3010701000D+01 Coefficients=  1.9682158000D-02
     Exponent=  1.9622572000D+00 Coefficients=  1.3796524000D-01
     Exponent=  4.4453796000D-01 Coefficients=  4.7831935000D-01
 S 1 1.00
     Exponent=  1.2194962000D-01 Coefficients=  1.0000000000D+00
 P 1 1.00
     Exponent=  8.0000000000D-01 Coefficients=  1.0000000000D+00
 ****
 Centers:       2      5      6      7      8      9     10     11     12     13
 Centers:      14     15     16     17     18     20     21     25     28     31
 Centers:      32     33     34     35     36     37     50     51
 S 5 1.00
     Exponent=  1.2384016938D+03 Coefficients=  5.4568832082D-03
     Exponent=  1.8629004992D+02 Coefficients=  4.0638409211D-02
     Exponent=  4.2251176346D+01 Coefficients=  1.8025593888D-01
     Exponent=  1.1676557932D+01 Coefficients=  4.6315121755D-01
     Exponent=  3.5930506482D+00 Coefficients=  4.4087173314D-01
 S 1 1.00
     Exponent=  4.0245147363D-01 Coefficients=  1.0000000000D+00
 S 1 1.00
     Exponent=  1.3090182668D-01 Coefficients=  1.0000000000D+00
 P 3 1.00
     Exponent=  9.4680970621D+00 Coefficients=  3.8387871728D-02
     Exponent=  2.0103545142D+00 Coefficients=  2.1117025112D-01
     Exponent=  5.4771004707D-01 Coefficients=  5.1328172114D-01
 P 1 1.00
     Exponent=  1.5268613795D-01 Coefficients=  1.0000000000D+00
 D 1 1.00
     Exponent=  8.0000000000D-01 Coefficients=  1.0000000000D+00
 ****
 Centers:       3      4     38
 S 5 1.00
     Exponent=  1.7128415853D+03 Coefficients= -5.3934125305D-03
     Exponent=  2.5764812677D+02 Coefficients= -4.0221581118D-02
     Exponent=  5.8458245853D+01 Coefficients= -1.7931144990D-01
     Exponent=  1.6198367905D+01 Coefficients= -4.6376317823D-01
     Exponent=  5.0052600809D+00 Coefficients= -4.4171422662D-01
 S 1 1.00
     Exponent=  5.8731856571D-01 Coefficients=  1.0000000000D+00
 S 1 1.00
     Exponent=  1.8764592253D-01 Coefficients=  1.0000000000D+00
 P 3 1.00
     Exponent=  1.3571470233D+01 Coefficients= -4.0072398852D-02
     Exponent=  2.9257372874D+00 Coefficients= -2.1807045028D-01
     Exponent=  7.9927750754D-01 Coefficients= -5.1294466049D-01
 P 1 1.00
     Exponent=  2.1954348034D-01 Coefficients=  1.0000000000D+00
 D 1 1.00
     Exponent=  1.0000000000D+00 Coefficients=  1.0000000000D+00
 ****
 Centers:      22     23     40     41     42     43     44     45
 S 5 1.00
     Exponent=  2.8948325990D+03 Coefficients= -5.3408255515D-03
     Exponent=  4.3541939120D+02 Coefficients= -3.9904258866D-02
     Exponent=  9.8843328866D+01 Coefficients= -1.7912768038D-01
     Exponent=  2.7485198001D+01 Coefficients= -4.6758090825D-01
     Exponent=  8.5405498171D+00 Coefficients= -4.4653131020D-01
 S 1 1.00
     Exponent=  1.0654578038D+00 Coefficients=  1.0000000000D+00
 S 1 1.00
     Exponent=  3.3247346748D-01 Coefficients=  1.0000000000D+00
 P 3 1.00
     Exponent=  2.2696633924D+01 Coefficients= -4.5212874436D-02
     Exponent=  4.9872339257D+00 Coefficients= -2.3754317067D-01
     Exponent=  1.3491613954D+00 Coefficients= -5.1287353587D-01
 P 1 1.00
     Exponent=  3.4829881977D-01 Coefficients=  1.0000000000D+00
 D 1 1.00
     Exponent=  1.4000000000D+00 Coefficients=  1.0000000000D+00
 ****
 Centers:       1
 S 10 1.00
     Exponent=  2.7918080765D+06 Coefficients=  1.9120000000D-04
     Exponent=  8.8248758526D+05 Coefficients=  3.8400000000D-04
     Exponent=  2.7895339393D+05 Coefficients=  2.4520000000D-03
     Exponent=  8.3026905757D+04 Coefficients=  8.5909000000D-03
     Exponent=  3.3189870403D+04 Coefficients=  2.2429900000D-02
     Exponent=  1.3267596658D+04 Coefficients=  6.9280400000D-02
     Exponent=  5.3037001635D+03 Coefficients=  1.7787660000D-01
     Exponent=  2.1813080527D+03 Coefficients=  3.4464460000D-01
     Exponent=  9.2884325487D+02 Coefficients=  3.8190500000D-01
     Exponent=  3.9551946414D+02 Coefficients=  1.3862520000D-01
 S 1 1.00
     Exponent=  1.6841985523D+02 Coefficients=  1.0000000000D+00
 S 1 1.00
     Exponent=  7.1716439280D+01 Coefficients= -1.0000000000D+00
 S 2 1.00
     Exponent=  3.0538250110D+01 Coefficients= -7.2356540000D-01
     Exponent=  1.3003778900D+01 Coefficients= -3.0335010000D-01
 S 2 1.00
     Exponent=  5.5372611400D+00 Coefficients= -8.2104690000D-01
     Exponent=  2.3578731400D+00 Coefficients= -1.9906250000D-01
 S 2 1.00
     Exponent=  1.0040280900D+00 Coefficients=  8.1445420000D-01
     Exponent=  4.2753462000D-01 Coefficients=  2.0620380000D-01
 S 1 1.00
     Exponent=  1.8205253000D-01 Coefficients= -1.0000000000D+00
 S 1 1.00
     Exponent=  7.7521500000D-02 Coefficients=  1.0000000000D+00
 P 7 1.00
     Exponent=  2.5389728971D+04 Coefficients=  1.0889000000D-03
     Exponent=  7.4043281992D+03 Coefficients=  6.7513000000D-03
     Exponent=  2.6136944565D+03 Coefficients=  3.2640100000D-02
     Exponent=  1.0629677083D+03 Coefficients=  1.1057620000D-01
     Exponent=  4.7267119558D+02 Coefficients=  2.7059270000D-01
     Exponent=  2.1847683705D+02 Coefficients=  4.3314820000D-01
     Exponent=  1.0098378910D+02 Coefficients=  3.0399230000D-01
 P 2 1.00
     Exponent=  4.6676461440D+01 Coefficients=  6.2343840000D-01
     Exponent=  2.1574671260D+01 Coefficients=  4.1905890000D-01
 P 2 1.00
     Exponent=  9.9721878200D+00 Coefficients=  4.7869350000D-01
     Exponent=  4.6093184300D+00 Coefficients=  5.6529180000D-01
 P 2 1.00
     Exponent=  2.1305070400D+00 Coefficients=  3.6841680000D-01
     Exponent=  9.8475736000D-01 Coefficients=  6.7189180000D-01
 P 1 1.00
     Exponent=  4.5517196000D-01 Coefficients=  1.0000000000D+00
 P 1 1.00
     Exponent=  1.2639299000D-01 Coefficients=  1.0000000000D+00
 P 1 1.00
     Exponent=  4.7125980000D-02 Coefficients=  1.0000000000D+00
 D 5 1.00
     Exponent=  9.4474967668D+02 Coefficients=  1.4238400000D-02
     Exponent=  2.9859854131D+02 Coefficients=  9.5430600000D-02
     Exponent=  1.1341571932D+02 Coefficients=  3.3188520000D-01
     Exponent=  4.6721292360D+01 Coefficients=  5.0639130000D-01
     Exponent=  2.0498259910D+01 Coefficients=  2.5147200000D-01
 D 2 1.00
     Exponent=  7.6290246000D+00 Coefficients=  8.8346920000D-01
     Exponent=  2.8393637600D+00 Coefficients=  1.6431800000D-01
 D 1 1.00
     Exponent=  1.0567519400D+00 Coefficients=  1.0000000000D+00
 D 1 1.00
     Exponent=  3.9330102000D-01 Coefficients=  1.0000000000D+00
 F 4 1.00
     Exponent=  8.1713563170D+01 Coefficients=  7.9312200000D-02
     Exponent=  2.6014654140D+01 Coefficients=  3.3523320000D-01
     Exponent=  9.2416459200D+00 Coefficients=  5.4534950000D-01
     Exponent=  3.0833602700D+00 Coefficients=  3.4527520000D-01
 F 1 1.00
     Exponent=  8.4883040000D-01 Coefficients=  1.0000000000D+00
 ****
 Ernie: Thresh=  0.10000D-02 Tol=  0.10000D-05 Strict=F.
 AO basis set in the form of general basis input (Overlap normalization):
      1 0
 S  10 1.00       0.000000000000
      0.2791808077D+07  0.1911999859D-03
      0.8824875853D+06  0.3839999717D-03
      0.2789533939D+06  0.2451999819D-02
      0.8302690576D+05  0.8590899367D-02
      0.3318987040D+05  0.2242989835D-01
      0.1326759666D+05  0.6928039490D-01
      0.5303700163D+04  0.1778765869D+00
      0.2181308053D+04  0.3446445746D+00
      0.9288432549D+03  0.3819049719D+00
      0.3955194641D+03  0.1386251898D+00
 S   2 1.00       0.000000000000
      0.3053825011D+02 -0.7235654370D+00
      0.1300377890D+02 -0.3033501155D+00
 S   2 1.00       0.000000000000
      0.5537261140D+01 -0.8210469151D+00
      0.2357873140D+01 -0.1990625037D+00
 S   2 1.00       0.000000000000
      0.1004028090D+01  0.8144541699D+00
      0.4275346200D+00  0.2062037924D+00
 S   1 1.00       0.000000000000
      0.1684198552D+03  0.1000000000D+01
 S   1 1.00       0.000000000000
      0.7171643928D+02 -0.1000000000D+01
 S   1 1.00       0.000000000000
      0.1820525300D+00 -0.1000000000D+01
 S   1 1.00       0.000000000000
      0.7752150000D-01  0.1000000000D+01
 P   7 1.00       0.000000000000
      0.2538972897D+05  0.1088900018D-02
      0.7404328199D+04  0.6751300114D-02
      0.2613694456D+04  0.3264010055D-01
      0.1062967708D+04  0.1105762019D+00
      0.4726711956D+03  0.2705927046D+00
      0.2184768371D+03  0.4331482073D+00
      0.1009837891D+03  0.3039923051D+00
 P   2 1.00       0.000000000000
      0.4667646144D+02  0.6234384408D+00
      0.2157467126D+02  0.4190589274D+00
 P   2 1.00       0.000000000000
      0.9972187820D+01  0.4786934880D+00
      0.4609318430D+01  0.5652917858D+00
 P   2 1.00       0.000000000000
      0.2130507040D+01  0.3684168021D+00
      0.9847573600D+00  0.6718918039D+00
 P   1 1.00       0.000000000000
      0.4551719600D+00  0.1000000000D+01
 P   1 1.00       0.000000000000
      0.1263929900D+00  0.1000000000D+01
 P   1 1.00       0.000000000000
      0.4712598000D-01  0.1000000000D+01
 D   5 1.00       0.000000000000
      0.9447496767D+03  0.1423840071D-01
      0.2985985413D+03  0.9543060475D-01
      0.1134157193D+03  0.3318852165D+00
      0.4672129236D+02  0.5063913252D+00
      0.2049825991D+02  0.2514720125D+00
 D   2 1.00       0.000000000000
      0.7629024600D+01  0.8834691739D+00
      0.2839363760D+01  0.1643179951D+00
 D   1 1.00       0.000000000000
      0.1056751940D+01  0.1000000000D+01
 D   1 1.00       0.000000000000
      0.3933010200D+00  0.1000000000D+01
 F   4 1.00       0.000000000000
      0.8171356317D+02  0.7931219693D-01
      0.2601465414D+02  0.3352331870D+00
      0.9241645920D+01  0.5453494789D+00
      0.3083360270D+01  0.3452751867D+00
 F   1 1.00       0.000000000000
      0.8488304000D+00  0.1000000000D+01
 ****
      2 0
 S   5 1.00       0.000000000000
      0.1238401694D+04  0.5517365048D-02
      0.1862900499D+03  0.4108882856D-01
      0.4225117635D+02  0.1822538213D+00
      0.1167655793D+02  0.4682845944D+00
      0.3593050648D+01  0.4457581734D+00
 S   1 1.00       0.000000000000
      0.4024514736D+00  0.1000000000D+01
 S   1 1.00       0.000000000000
      0.1309018267D+00  0.1000000000D+01
 P   3 1.00       0.000000000000
      0.9468097062D+01  0.5688833201D-01
      0.2010354514D+01  0.3129405934D+00
      0.5477100471D+00  0.7606501651D+00
 P   1 1.00       0.000000000000
      0.1526861380D+00  0.1000000000D+01
 D   1 1.00       0.000000000000
      0.8000000000D+00  0.1000000000D+01
 ****
      3 0
 S   5 1.00       0.000000000000
      0.1712841585D+04 -0.5447799580D-02
      0.2576481268D+03 -0.4062717463D-01
      0.5845824585D+02 -0.1811196225D+00
      0.1619836791D+02 -0.4684397556D+00
      0.5005260081D+01 -0.4461684629D+00
 S   1 1.00       0.000000000000
      0.5873185657D+00  0.1000000000D+01
 S   1 1.00       0.000000000000
      0.1876459225D+00  0.1000000000D+01
 P   3 1.00       0.000000000000
      0.1357147023D+02 -0.5884811697D-01
      0.2925737287D+01 -0.3202462476D+00
      0.7992775075D+00 -0.7532822652D+00
 P   1 1.00       0.000000000000
      0.2195434803D+00  0.1000000000D+01
 D   1 1.00       0.000000000000
      0.1000000000D+01  0.1000000000D+01
 ****
      4 0
 S   5 1.00       0.000000000000
      0.1712841585D+04 -0.5447799580D-02
      0.2576481268D+03 -0.4062717463D-01
      0.5845824585D+02 -0.1811196225D+00
      0.1619836791D+02 -0.4684397556D+00
      0.5005260081D+01 -0.4461684629D+00
 S   1 1.00       0.000000000000
      0.5873185657D+00  0.1000000000D+01
 S   1 1.00       0.000000000000
      0.1876459225D+00  0.1000000000D+01
 P   3 1.00       0.000000000000
      0.1357147023D+02 -0.5884811697D-01
      0.2925737287D+01 -0.3202462476D+00
      0.7992775075D+00 -0.7532822652D+00
 P   1 1.00       0.000000000000
      0.2195434803D+00  0.1000000000D+01
 D   1 1.00       0.000000000000
      0.1000000000D+01  0.1000000000D+01
 ****
      5 0
 S   5 1.00       0.000000000000
      0.1238401694D+04  0.5517365048D-02
      0.1862900499D+03  0.4108882856D-01
      0.4225117635D+02  0.1822538213D+00
      0.1167655793D+02  0.4682845944D+00
      0.3593050648D+01  0.4457581734D+00
 S   1 1.00       0.000000000000
      0.4024514736D+00  0.1000000000D+01
 S   1 1.00       0.000000000000
      0.1309018267D+00  0.1000000000D+01
 P   3 1.00       0.000000000000
      0.9468097062D+01  0.5688833201D-01
      0.2010354514D+01  0.3129405934D+00
      0.5477100471D+00  0.7606501651D+00
 P   1 1.00       0.000000000000
      0.1526861380D+00  0.1000000000D+01
 D   1 1.00       0.000000000000
      0.8000000000D+00  0.1000000000D+01
 ****
      6 0
 S   5 1.00       0.000000000000
      0.1238401694D+04  0.5517365048D-02
      0.1862900499D+03  0.4108882856D-01
      0.4225117635D+02  0.1822538213D+00
      0.1167655793D+02  0.4682845944D+00
      0.3593050648D+01  0.4457581734D+00
 S   1 1.00       0.000000000000
      0.4024514736D+00  0.1000000000D+01
 S   1 1.00       0.000000000000
      0.1309018267D+00  0.1000000000D+01
 P   3 1.00       0.000000000000
      0.9468097062D+01  0.5688833201D-01
      0.2010354514D+01  0.3129405934D+00
      0.5477100471D+00  0.7606501651D+00
 P   1 1.00       0.000000000000
      0.1526861380D+00  0.1000000000D+01
 D   1 1.00       0.000000000000
      0.8000000000D+00  0.1000000000D+01
 ****
      7 0
 S   5 1.00       0.000000000000
      0.1238401694D+04  0.5517365048D-02
      0.1862900499D+03  0.4108882856D-01
      0.4225117635D+02  0.1822538213D+00
      0.1167655793D+02  0.4682845944D+00
      0.3593050648D+01  0.4457581734D+00
 S   1 1.00       0.000000000000
      0.4024514736D+00  0.1000000000D+01
 S   1 1.00       0.000000000000
      0.1309018267D+00  0.1000000000D+01
 P   3 1.00       0.000000000000
      0.9468097062D+01  0.5688833201D-01
      0.2010354514D+01  0.3129405934D+00
      0.5477100471D+00  0.7606501651D+00
 P   1 1.00       0.000000000000
      0.1526861380D+00  0.1000000000D+01
 D   1 1.00       0.000000000000
      0.8000000000D+00  0.1000000000D+01
 ****
      8 0
 S   5 1.00       0.000000000000
      0.1238401694D+04  0.5517365048D-02
      0.1862900499D+03  0.4108882856D-01
      0.4225117635D+02  0.1822538213D+00
      0.1167655793D+02  0.4682845944D+00
      0.3593050648D+01  0.4457581734D+00
 S   1 1.00       0.000000000000
      0.4024514736D+00  0.1000000000D+01
 S   1 1.00       0.000000000000
      0.1309018267D+00  0.1000000000D+01
 P   3 1.00       0.000000000000
      0.9468097062D+01  0.5688833201D-01
      0.2010354514D+01  0.3129405934D+00
      0.5477100471D+00  0.7606501651D+00
 P   1 1.00       0.000000000000
      0.1526861380D+00  0.1000000000D+01
 D   1 1.00       0.000000000000
      0.8000000000D+00  0.1000000000D+01
 ****
      9 0
 S   5 1.00       0.000000000000
      0.1238401694D+04  0.5517365048D-02
      0.1862900499D+03  0.4108882856D-01
      0.4225117635D+02  0.1822538213D+00
      0.1167655793D+02  0.4682845944D+00
      0.3593050648D+01  0.4457581734D+00
 S   1 1.00       0.000000000000
      0.4024514736D+00  0.1000000000D+01
 S   1 1.00       0.000000000000
      0.1309018267D+00  0.1000000000D+01
 P   3 1.00       0.000000000000
      0.9468097062D+01  0.5688833201D-01
      0.2010354514D+01  0.3129405934D+00
      0.5477100471D+00  0.7606501651D+00
 P   1 1.00       0.000000000000
      0.1526861380D+00  0.1000000000D+01
 D   1 1.00       0.000000000000
      0.8000000000D+00  0.1000000000D+01
 ****
     10 0
 S   5 1.00       0.000000000000
      0.1238401694D+04  0.5517365048D-02
      0.1862900499D+03  0.4108882856D-01
      0.4225117635D+02  0.1822538213D+00
      0.1167655793D+02  0.4682845944D+00
      0.3593050648D+01  0.4457581734D+00
 S   1 1.00       0.000000000000
      0.4024514736D+00  0.1000000000D+01
 S   1 1.00       0.000000000000
      0.1309018267D+00  0.1000000000D+01
 P   3 1.00       0.000000000000
      0.9468097062D+01  0.5688833201D-01
      0.2010354514D+01  0.3129405934D+00
      0.5477100471D+00  0.7606501651D+00
 P   1 1.00       0.000000000000
      0.1526861380D+00  0.1000000000D+01
 D   1 1.00       0.000000000000
      0.8000000000D+00  0.1000000000D+01
 ****
     11 0
 S   5 1.00       0.000000000000
      0.1238401694D+04  0.5517365048D-02
      0.1862900499D+03  0.4108882856D-01
      0.4225117635D+02  0.1822538213D+00
      0.1167655793D+02  0.4682845944D+00
      0.3593050648D+01  0.4457581734D+00
 S   1 1.00       0.000000000000
      0.4024514736D+00  0.1000000000D+01
 S   1 1.00       0.000000000000
      0.1309018267D+00  0.1000000000D+01
 P   3 1.00       0.000000000000
      0.9468097062D+01  0.5688833201D-01
      0.2010354514D+01  0.3129405934D+00
      0.5477100471D+00  0.7606501651D+00
 P   1 1.00       0.000000000000
      0.1526861380D+00  0.1000000000D+01
 D   1 1.00       0.000000000000
      0.8000000000D+00  0.1000000000D+01
 ****
     12 0
 S   5 1.00       0.000000000000
      0.1238401694D+04  0.5517365048D-02
      0.1862900499D+03  0.4108882856D-01
      0.4225117635D+02  0.1822538213D+00
      0.1167655793D+02  0.4682845944D+00
      0.3593050648D+01  0.4457581734D+00
 S   1 1.00       0.000000000000
      0.4024514736D+00  0.1000000000D+01
 S   1 1.00       0.000000000000
      0.1309018267D+00  0.1000000000D+01
 P   3 1.00       0.000000000000
      0.9468097062D+01  0.5688833201D-01
      0.2010354514D+01  0.3129405934D+00
      0.5477100471D+00  0.7606501651D+00
 P   1 1.00       0.000000000000
      0.1526861380D+00  0.1000000000D+01
 D   1 1.00       0.000000000000
      0.8000000000D+00  0.1000000000D+01
 ****
     13 0
 S   5 1.00       0.000000000000
      0.1238401694D+04  0.5517365048D-02
      0.1862900499D+03  0.4108882856D-01
      0.4225117635D+02  0.1822538213D+00
      0.1167655793D+02  0.4682845944D+00
      0.3593050648D+01  0.4457581734D+00
 S   1 1.00       0.000000000000
      0.4024514736D+00  0.1000000000D+01
 S   1 1.00       0.000000000000
      0.1309018267D+00  0.1000000000D+01
 P   3 1.00       0.000000000000
      0.9468097062D+01  0.5688833201D-01
      0.2010354514D+01  0.3129405934D+00
      0.5477100471D+00  0.7606501651D+00
 P   1 1.00       0.000000000000
      0.1526861380D+00  0.1000000000D+01
 D   1 1.00       0.000000000000
      0.8000000000D+00  0.1000000000D+01
 ****
     14 0
 S   5 1.00       0.000000000000
      0.1238401694D+04  0.5517365048D-02
      0.1862900499D+03  0.4108882856D-01
      0.4225117635D+02  0.1822538213D+00
      0.1167655793D+02  0.4682845944D+00
      0.3593050648D+01  0.4457581734D+00
 S   1 1.00       0.000000000000
      0.4024514736D+00  0.1000000000D+01
 S   1 1.00       0.000000000000
      0.1309018267D+00  0.1000000000D+01
 P   3 1.00       0.000000000000
      0.9468097062D+01  0.5688833201D-01
      0.2010354514D+01  0.3129405934D+00
      0.5477100471D+00  0.7606501651D+00
 P   1 1.00       0.000000000000
      0.1526861380D+00  0.1000000000D+01
 D   1 1.00       0.000000000000
      0.8000000000D+00  0.1000000000D+01
 ****
     15 0
 S   5 1.00       0.000000000000
      0.1238401694D+04  0.5517365048D-02
      0.1862900499D+03  0.4108882856D-01
      0.4225117635D+02  0.1822538213D+00
      0.1167655793D+02  0.4682845944D+00
      0.3593050648D+01  0.4457581734D+00
 S   1 1.00       0.000000000000
      0.4024514736D+00  0.1000000000D+01
 S   1 1.00       0.000000000000
      0.1309018267D+00  0.1000000000D+01
 P   3 1.00       0.000000000000
      0.9468097062D+01  0.5688833201D-01
      0.2010354514D+01  0.3129405934D+00
      0.5477100471D+00  0.7606501651D+00
 P   1 1.00       0.000000000000
      0.1526861380D+00  0.1000000000D+01
 D   1 1.00       0.000000000000
      0.8000000000D+00  0.1000000000D+01
 ****
     16 0
 S   5 1.00       0.000000000000
      0.1238401694D+04  0.5517365048D-02
      0.1862900499D+03  0.4108882856D-01
      0.4225117635D+02  0.1822538213D+00
      0.1167655793D+02  0.4682845944D+00
      0.3593050648D+01  0.4457581734D+00
 S   1 1.00       0.000000000000
      0.4024514736D+00  0.1000000000D+01
 S   1 1.00       0.000000000000
      0.1309018267D+00  0.1000000000D+01
 P   3 1.00       0.000000000000
      0.9468097062D+01  0.5688833201D-01
      0.2010354514D+01  0.3129405934D+00
      0.5477100471D+00  0.7606501651D+00
 P   1 1.00       0.000000000000
      0.1526861380D+00  0.1000000000D+01
 D   1 1.00       0.000000000000
      0.8000000000D+00  0.1000000000D+01
 ****
     17 0
 S   5 1.00       0.000000000000
      0.1238401694D+04  0.5517365048D-02
      0.1862900499D+03  0.4108882856D-01
      0.4225117635D+02  0.1822538213D+00
      0.1167655793D+02  0.4682845944D+00
      0.3593050648D+01  0.4457581734D+00
 S   1 1.00       0.000000000000
      0.4024514736D+00  0.1000000000D+01
 S   1 1.00       0.000000000000
      0.1309018267D+00  0.1000000000D+01
 P   3 1.00       0.000000000000
      0.9468097062D+01  0.5688833201D-01
      0.2010354514D+01  0.3129405934D+00
      0.5477100471D+00  0.7606501651D+00
 P   1 1.00       0.000000000000
      0.1526861380D+00  0.1000000000D+01
 D   1 1.00       0.000000000000
      0.8000000000D+00  0.1000000000D+01
 ****
     18 0
 S   5 1.00       0.000000000000
      0.1238401694D+04  0.5517365048D-02
      0.1862900499D+03  0.4108882856D-01
      0.4225117635D+02  0.1822538213D+00
      0.1167655793D+02  0.4682845944D+00
      0.3593050648D+01  0.4457581734D+00
 S   1 1.00       0.000000000000
      0.4024514736D+00  0.1000000000D+01
 S   1 1.00       0.000000000000
      0.1309018267D+00  0.1000000000D+01
 P   3 1.00       0.000000000000
      0.9468097062D+01  0.5688833201D-01
      0.2010354514D+01  0.3129405934D+00
      0.5477100471D+00  0.7606501651D+00
 P   1 1.00       0.000000000000
      0.1526861380D+00  0.1000000000D+01
 D   1 1.00       0.000000000000
      0.8000000000D+00  0.1000000000D+01
 ****
     19 0
 S   3 1.00       0.000000000000
      0.1301070100D+02  0.3348548481D-01
      0.1962257200D+01  0.2347218709D+00
      0.4445379600D+00  0.8137702853D+00
 S   1 1.00       0.000000000000
      0.1219496200D+00  0.1000000000D+01
 P   1 1.00       0.000000000000
      0.8000000000D+00  0.1000000000D+01
 ****
     20 0
 S   5 1.00       0.000000000000
      0.1238401694D+04  0.5517365048D-02
      0.1862900499D+03  0.4108882856D-01
      0.4225117635D+02  0.1822538213D+00
      0.1167655793D+02  0.4682845944D+00
      0.3593050648D+01  0.4457581734D+00
 S   1 1.00       0.000000000000
      0.4024514736D+00  0.1000000000D+01
 S   1 1.00       0.000000000000
      0.1309018267D+00  0.1000000000D+01
 P   3 1.00       0.000000000000
      0.9468097062D+01  0.5688833201D-01
      0.2010354514D+01  0.3129405934D+00
      0.5477100471D+00  0.7606501651D+00
 P   1 1.00       0.000000000000
      0.1526861380D+00  0.1000000000D+01
 D   1 1.00       0.000000000000
      0.8000000000D+00  0.1000000000D+01
 ****
     21 0
 S   5 1.00       0.000000000000
      0.1238401694D+04  0.5517365048D-02
      0.1862900499D+03  0.4108882856D-01
      0.4225117635D+02  0.1822538213D+00
      0.1167655793D+02  0.4682845944D+00
      0.3593050648D+01  0.4457581734D+00
 S   1 1.00       0.000000000000
      0.4024514736D+00  0.1000000000D+01
 S   1 1.00       0.000000000000
      0.1309018267D+00  0.1000000000D+01
 P   3 1.00       0.000000000000
      0.9468097062D+01  0.5688833201D-01
      0.2010354514D+01  0.3129405934D+00
      0.5477100471D+00  0.7606501651D+00
 P   1 1.00       0.000000000000
      0.1526861380D+00  0.1000000000D+01
 D   1 1.00       0.000000000000
      0.8000000000D+00  0.1000000000D+01
 ****
     22 0
 S   5 1.00       0.000000000000
      0.2894832599D+04 -0.5349321176D-02
      0.4354193912D+03 -0.3996773437D-01
      0.9884332887D+02 -0.1794126179D+00
      0.2748519800D+02 -0.4683246869D+00
      0.8540549817D+01 -0.4472416053D+00
 S   1 1.00       0.000000000000
      0.1065457804D+01  0.1000000000D+01
 S   1 1.00       0.000000000000
      0.3324734675D+00  0.1000000000D+01
 P   3 1.00       0.000000000000
      0.2269663392D+02 -0.6478214824D-01
      0.4987233926D+01 -0.3403578536D+00
      0.1349161395D+01 -0.7348581537D+00
 P   1 1.00       0.000000000000
      0.3482988198D+00  0.1000000000D+01
 D   1 1.00       0.000000000000
      0.1400000000D+01  0.1000000000D+01
 ****
     23 0
 S   5 1.00       0.000000000000
      0.2894832599D+04 -0.5349321176D-02
      0.4354193912D+03 -0.3996773437D-01
      0.9884332887D+02 -0.1794126179D+00
      0.2748519800D+02 -0.4683246869D+00
      0.8540549817D+01 -0.4472416053D+00
 S   1 1.00       0.000000000000
      0.1065457804D+01  0.1000000000D+01
 S   1 1.00       0.000000000000
      0.3324734675D+00  0.1000000000D+01
 P   3 1.00       0.000000000000
      0.2269663392D+02 -0.6478214824D-01
      0.4987233926D+01 -0.3403578536D+00
      0.1349161395D+01 -0.7348581537D+00
 P   1 1.00       0.000000000000
      0.3482988198D+00  0.1000000000D+01
 D   1 1.00       0.000000000000
      0.1400000000D+01  0.1000000000D+01
 ****
     24 0
 S   3 1.00       0.000000000000
      0.1301070100D+02  0.3348548481D-01
      0.1962257200D+01  0.2347218709D+00
      0.4445379600D+00  0.8137702853D+00
 S   1 1.00       0.000000000000
      0.1219496200D+00  0.1000000000D+01
 P   1 1.00       0.000000000000
      0.8000000000D+00  0.1000000000D+01
 ****
     25 0
 S   5 1.00       0.000000000000
      0.1238401694D+04  0.5517365048D-02
      0.1862900499D+03  0.4108882856D-01
      0.4225117635D+02  0.1822538213D+00
      0.1167655793D+02  0.4682845944D+00
      0.3593050648D+01  0.4457581734D+00
 S   1 1.00       0.000000000000
      0.4024514736D+00  0.1000000000D+01
 S   1 1.00       0.000000000000
      0.1309018267D+00  0.1000000000D+01
 P   3 1.00       0.000000000000
      0.9468097062D+01  0.5688833201D-01
      0.2010354514D+01  0.3129405934D+00
      0.5477100471D+00  0.7606501651D+00
 P   1 1.00       0.000000000000
      0.1526861380D+00  0.1000000000D+01
 D   1 1.00       0.000000000000
      0.8000000000D+00  0.1000000000D+01
 ****
     26 0
 S   3 1.00       0.000000000000
      0.1301070100D+02  0.3348548481D-01
      0.1962257200D+01  0.2347218709D+00
      0.4445379600D+00  0.8137702853D+00
 S   1 1.00       0.000000000000
      0.1219496200D+00  0.1000000000D+01
 P   1 1.00       0.000000000000
      0.8000000000D+00  0.1000000000D+01
 ****
     27 0
 S   3 1.00       0.000000000000
      0.1301070100D+02  0.3348548481D-01
      0.1962257200D+01  0.2347218709D+00
      0.4445379600D+00  0.8137702853D+00
 S   1 1.00       0.000000000000
      0.1219496200D+00  0.1000000000D+01
 P   1 1.00       0.000000000000
      0.8000000000D+00  0.1000000000D+01
 ****
     28 0
 S   5 1.00       0.000000000000
      0.1238401694D+04  0.5517365048D-02
      0.1862900499D+03  0.4108882856D-01
      0.4225117635D+02  0.1822538213D+00
      0.1167655793D+02  0.4682845944D+00
      0.3593050648D+01  0.4457581734D+00
 S   1 1.00       0.000000000000
      0.4024514736D+00  0.1000000000D+01
 S   1 1.00       0.000000000000
      0.1309018267D+00  0.1000000000D+01
 P   3 1.00       0.000000000000
      0.9468097062D+01  0.5688833201D-01
      0.2010354514D+01  0.3129405934D+00
      0.5477100471D+00  0.7606501651D+00
 P   1 1.00       0.000000000000
      0.1526861380D+00  0.1000000000D+01
 D   1 1.00       0.000000000000
      0.8000000000D+00  0.1000000000D+01
 ****
     29 0
 S   3 1.00       0.000000000000
      0.1301070100D+02  0.3348548481D-01
      0.1962257200D+01  0.2347218709D+00
      0.4445379600D+00  0.8137702853D+00
 S   1 1.00       0.000000000000
      0.1219496200D+00  0.1000000000D+01
 P   1 1.00       0.000000000000
      0.8000000000D+00  0.1000000000D+01
 ****
     30 0
 S   3 1.00       0.000000000000
      0.1301070100D+02  0.3348548481D-01
      0.1962257200D+01  0.2347218709D+00
      0.4445379600D+00  0.8137702853D+00
 S   1 1.00       0.000000000000
      0.1219496200D+00  0.1000000000D+01
 P   1 1.00       0.000000000000
      0.8000000000D+00  0.1000000000D+01
 ****
     31 0
 S   5 1.00       0.000000000000
      0.1238401694D+04  0.5517365048D-02
      0.1862900499D+03  0.4108882856D-01
      0.4225117635D+02  0.1822538213D+00
      0.1167655793D+02  0.4682845944D+00
      0.3593050648D+01  0.4457581734D+00
 S   1 1.00       0.000000000000
      0.4024514736D+00  0.1000000000D+01
 S   1 1.00       0.000000000000
      0.1309018267D+00  0.1000000000D+01
 P   3 1.00       0.000000000000
      0.9468097062D+01  0.5688833201D-01
      0.2010354514D+01  0.3129405934D+00
      0.5477100471D+00  0.7606501651D+00
 P   1 1.00       0.000000000000
      0.1526861380D+00  0.1000000000D+01
 D   1 1.00       0.000000000000
      0.8000000000D+00  0.1000000000D+01
 ****
     32 0
 S   5 1.00       0.000000000000
      0.1238401694D+04  0.5517365048D-02
      0.1862900499D+03  0.4108882856D-01
      0.4225117635D+02  0.1822538213D+00
      0.1167655793D+02  0.4682845944D+00
      0.3593050648D+01  0.4457581734D+00
 S   1 1.00       0.000000000000
      0.4024514736D+00  0.1000000000D+01
 S   1 1.00       0.000000000000
      0.1309018267D+00  0.1000000000D+01
 P   3 1.00       0.000000000000
      0.9468097062D+01  0.5688833201D-01
      0.2010354514D+01  0.3129405934D+00
      0.5477100471D+00  0.7606501651D+00
 P   1 1.00       0.000000000000
      0.1526861380D+00  0.1000000000D+01
 D   1 1.00       0.000000000000
      0.8000000000D+00  0.1000000000D+01
 ****
     33 0
 S   5 1.00       0.000000000000
      0.1238401694D+04  0.5517365048D-02
      0.1862900499D+03  0.4108882856D-01
      0.4225117635D+02  0.1822538213D+00
      0.1167655793D+02  0.4682845944D+00
      0.3593050648D+01  0.4457581734D+00
 S   1 1.00       0.000000000000
      0.4024514736D+00  0.1000000000D+01
 S   1 1.00       0.000000000000
      0.1309018267D+00  0.1000000000D+01
 P   3 1.00       0.000000000000
      0.9468097062D+01  0.5688833201D-01
      0.2010354514D+01  0.3129405934D+00
      0.5477100471D+00  0.7606501651D+00
 P   1 1.00       0.000000000000
      0.1526861380D+00  0.1000000000D+01
 D   1 1.00       0.000000000000
      0.8000000000D+00  0.1000000000D+01
 ****
     34 0
 S   5 1.00       0.000000000000
      0.1238401694D+04  0.5517365048D-02
      0.1862900499D+03  0.4108882856D-01
      0.4225117635D+02  0.1822538213D+00
      0.1167655793D+02  0.4682845944D+00
      0.3593050648D+01  0.4457581734D+00
 S   1 1.00       0.000000000000
      0.4024514736D+00  0.1000000000D+01
 S   1 1.00       0.000000000000
      0.1309018267D+00  0.1000000000D+01
 P   3 1.00       0.000000000000
      0.9468097062D+01  0.5688833201D-01
      0.2010354514D+01  0.3129405934D+00
      0.5477100471D+00  0.7606501651D+00
 P   1 1.00       0.000000000000
      0.1526861380D+00  0.1000000000D+01
 D   1 1.00       0.000000000000
      0.8000000000D+00  0.1000000000D+01
 ****
     35 0
 S   5 1.00       0.000000000000
      0.1238401694D+04  0.5517365048D-02
      0.1862900499D+03  0.4108882856D-01
      0.4225117635D+02  0.1822538213D+00
      0.1167655793D+02  0.4682845944D+00
      0.3593050648D+01  0.4457581734D+00
 S   1 1.00       0.000000000000
      0.4024514736D+00  0.1000000000D+01
 S   1 1.00       0.000000000000
      0.1309018267D+00  0.1000000000D+01
 P   3 1.00       0.000000000000
      0.9468097062D+01  0.5688833201D-01
      0.2010354514D+01  0.3129405934D+00
      0.5477100471D+00  0.7606501651D+00
 P   1 1.00       0.000000000000
      0.1526861380D+00  0.1000000000D+01
 D   1 1.00       0.000000000000
      0.8000000000D+00  0.1000000000D+01
 ****
     36 0
 S   5 1.00       0.000000000000
      0.1238401694D+04  0.5517365048D-02
      0.1862900499D+03  0.4108882856D-01
      0.4225117635D+02  0.1822538213D+00
      0.1167655793D+02  0.4682845944D+00
      0.3593050648D+01  0.4457581734D+00
 S   1 1.00       0.000000000000
      0.4024514736D+00  0.1000000000D+01
 S   1 1.00       0.000000000000
      0.1309018267D+00  0.1000000000D+01
 P   3 1.00       0.000000000000
      0.9468097062D+01  0.5688833201D-01
      0.2010354514D+01  0.3129405934D+00
      0.5477100471D+00  0.7606501651D+00
 P   1 1.00       0.000000000000
      0.1526861380D+00  0.1000000000D+01
 D   1 1.00       0.000000000000
      0.8000000000D+00  0.1000000000D+01
 ****
     37 0
 S   5 1.00       0.000000000000
      0.1238401694D+04  0.5517365048D-02
      0.1862900499D+03  0.4108882856D-01
      0.4225117635D+02  0.1822538213D+00
      0.1167655793D+02  0.4682845944D+00
      0.3593050648D+01  0.4457581734D+00
 S   1 1.00       0.000000000000
      0.4024514736D+00  0.1000000000D+01
 S   1 1.00       0.000000000000
      0.1309018267D+00  0.1000000000D+01
 P   3 1.00       0.000000000000
      0.9468097062D+01  0.5688833201D-01
      0.2010354514D+01  0.3129405934D+00
      0.5477100471D+00  0.7606501651D+00
 P   1 1.00       0.000000000000
      0.1526861380D+00  0.1000000000D+01
 D   1 1.00       0.000000000000
      0.8000000000D+00  0.1000000000D+01
 ****
     38 0
 S   5 1.00       0.000000000000
      0.1712841585D+04 -0.5447799580D-02
      0.2576481268D+03 -0.4062717463D-01
      0.5845824585D+02 -0.1811196225D+00
      0.1619836791D+02 -0.4684397556D+00
      0.5005260081D+01 -0.4461684629D+00
 S   1 1.00       0.000000000000
      0.5873185657D+00  0.1000000000D+01
 S   1 1.00       0.000000000000
      0.1876459225D+00  0.1000000000D+01
 P   3 1.00       0.000000000000
      0.1357147023D+02 -0.5884811697D-01
      0.2925737287D+01 -0.3202462476D+00
      0.7992775075D+00 -0.7532822652D+00
 P   1 1.00       0.000000000000
      0.2195434803D+00  0.1000000000D+01
 D   1 1.00       0.000000000000
      0.1000000000D+01  0.1000000000D+01
 ****
     39 0
 S   3 1.00       0.000000000000
      0.1301070100D+02  0.3348548481D-01
      0.1962257200D+01  0.2347218709D+00
      0.4445379600D+00  0.8137702853D+00
 S   1 1.00       0.000000000000
      0.1219496200D+00  0.1000000000D+01
 P   1 1.00       0.000000000000
      0.8000000000D+00  0.1000000000D+01
 ****
     40 0
 S   5 1.00       0.000000000000
      0.2894832599D+04 -0.5349321176D-02
      0.4354193912D+03 -0.3996773437D-01
      0.9884332887D+02 -0.1794126179D+00
      0.2748519800D+02 -0.4683246869D+00
      0.8540549817D+01 -0.4472416053D+00
 S   1 1.00       0.000000000000
      0.1065457804D+01  0.1000000000D+01
 S   1 1.00       0.000000000000
      0.3324734675D+00  0.1000000000D+01
 P   3 1.00       0.000000000000
      0.2269663392D+02 -0.6478214824D-01
      0.4987233926D+01 -0.3403578536D+00
      0.1349161395D+01 -0.7348581537D+00
 P   1 1.00       0.000000000000
      0.3482988198D+00  0.1000000000D+01
 D   1 1.00       0.000000000000
      0.1400000000D+01  0.1000000000D+01
 ****
     41 0
 S   5 1.00       0.000000000000
      0.2894832599D+04 -0.5349321176D-02
      0.4354193912D+03 -0.3996773437D-01
      0.9884332887D+02 -0.1794126179D+00
      0.2748519800D+02 -0.4683246869D+00
      0.8540549817D+01 -0.4472416053D+00
 S   1 1.00       0.000000000000
      0.1065457804D+01  0.1000000000D+01
 S   1 1.00       0.000000000000
      0.3324734675D+00  0.1000000000D+01
 P   3 1.00       0.000000000000
      0.2269663392D+02 -0.6478214824D-01
      0.4987233926D+01 -0.3403578536D+00
      0.1349161395D+01 -0.7348581537D+00
 P   1 1.00       0.000000000000
      0.3482988198D+00  0.1000000000D+01
 D   1 1.00       0.000000000000
      0.1400000000D+01  0.1000000000D+01
 ****
     42 0
 S   5 1.00       0.000000000000
      0.2894832599D+04 -0.5349321176D-02
      0.4354193912D+03 -0.3996773437D-01
      0.9884332887D+02 -0.1794126179D+00
      0.2748519800D+02 -0.4683246869D+00
      0.8540549817D+01 -0.4472416053D+00
 S   1 1.00       0.000000000000
      0.1065457804D+01  0.1000000000D+01
 S   1 1.00       0.000000000000
      0.3324734675D+00  0.1000000000D+01
 P   3 1.00       0.000000000000
      0.2269663392D+02 -0.6478214824D-01
      0.4987233926D+01 -0.3403578536D+00
      0.1349161395D+01 -0.7348581537D+00
 P   1 1.00       0.000000000000
      0.3482988198D+00  0.1000000000D+01
 D   1 1.00       0.000000000000
      0.1400000000D+01  0.1000000000D+01
 ****
     43 0
 S   5 1.00       0.000000000000
      0.2894832599D+04 -0.5349321176D-02
      0.4354193912D+03 -0.3996773437D-01
      0.9884332887D+02 -0.1794126179D+00
      0.2748519800D+02 -0.4683246869D+00
      0.8540549817D+01 -0.4472416053D+00
 S   1 1.00       0.000000000000
      0.1065457804D+01  0.1000000000D+01
 S   1 1.00       0.000000000000
      0.3324734675D+00  0.1000000000D+01
 P   3 1.00       0.000000000000
      0.2269663392D+02 -0.6478214824D-01
      0.4987233926D+01 -0.3403578536D+00
      0.1349161395D+01 -0.7348581537D+00
 P   1 1.00       0.000000000000
      0.3482988198D+00  0.1000000000D+01
 D   1 1.00       0.000000000000
      0.1400000000D+01  0.1000000000D+01
 ****
     44 0
 S   5 1.00       0.000000000000
      0.2894832599D+04 -0.5349321176D-02
      0.4354193912D+03 -0.3996773437D-01
      0.9884332887D+02 -0.1794126179D+00
      0.2748519800D+02 -0.4683246869D+00
      0.8540549817D+01 -0.4472416053D+00
 S   1 1.00       0.000000000000
      0.1065457804D+01  0.1000000000D+01
 S   1 1.00       0.000000000000
      0.3324734675D+00  0.1000000000D+01
 P   3 1.00       0.000000000000
      0.2269663392D+02 -0.6478214824D-01
      0.4987233926D+01 -0.3403578536D+00
      0.1349161395D+01 -0.7348581537D+00
 P   1 1.00       0.000000000000
      0.3482988198D+00  0.1000000000D+01
 D   1 1.00       0.000000000000
      0.1400000000D+01  0.1000000000D+01
 ****
     45 0
 S   5 1.00       0.000000000000
      0.2894832599D+04 -0.5349321176D-02
      0.4354193912D+03 -0.3996773437D-01
      0.9884332887D+02 -0.1794126179D+00
      0.2748519800D+02 -0.4683246869D+00
      0.8540549817D+01 -0.4472416053D+00
 S   1 1.00       0.000000000000
      0.1065457804D+01  0.1000000000D+01
 S   1 1.00       0.000000000000
      0.3324734675D+00  0.1000000000D+01
 P   3 1.00       0.000000000000
      0.2269663392D+02 -0.6478214824D-01
      0.4987233926D+01 -0.3403578536D+00
      0.1349161395D+01 -0.7348581537D+00
 P   1 1.00       0.000000000000
      0.3482988198D+00  0.1000000000D+01
 D   1 1.00       0.000000000000
      0.1400000000D+01  0.1000000000D+01
 ****
     46 0
 S   3 1.00       0.000000000000
      0.1301070100D+02  0.3348548481D-01
      0.1962257200D+01  0.2347218709D+00
      0.4445379600D+00  0.8137702853D+00
 S   1 1.00       0.000000000000
      0.1219496200D+00  0.1000000000D+01
 P   1 1.00       0.000000000000
      0.8000000000D+00  0.1000000000D+01
 ****
     47 0
 S   3 1.00       0.000000000000
      0.1301070100D+02  0.3348548481D-01
      0.1962257200D+01  0.2347218709D+00
      0.4445379600D+00  0.8137702853D+00
 S   1 1.00       0.000000000000
      0.1219496200D+00  0.1000000000D+01
 P   1 1.00       0.000000000000
      0.8000000000D+00  0.1000000000D+01
 ****
     48 0
 S   3 1.00       0.000000000000
      0.1301070100D+02  0.3348548481D-01
      0.1962257200D+01  0.2347218709D+00
      0.4445379600D+00  0.8137702853D+00
 S   1 1.00       0.000000000000
      0.1219496200D+00  0.1000000000D+01
 P   1 1.00       0.000000000000
      0.8000000000D+00  0.1000000000D+01
 ****
     49 0
 S   3 1.00       0.000000000000
      0.1301070100D+02  0.3348548481D-01
      0.1962257200D+01  0.2347218709D+00
      0.4445379600D+00  0.8137702853D+00
 S   1 1.00       0.000000000000
      0.1219496200D+00  0.1000000000D+01
 P   1 1.00       0.000000000000
      0.8000000000D+00  0.1000000000D+01
 ****
     50 0
 S   5 1.00       0.000000000000
      0.1238401694D+04  0.5517365048D-02
      0.1862900499D+03  0.4108882856D-01
      0.4225117635D+02  0.1822538213D+00
      0.1167655793D+02  0.4682845944D+00
      0.3593050648D+01  0.4457581734D+00
 S   1 1.00       0.000000000000
      0.4024514736D+00  0.1000000000D+01
 S   1 1.00       0.000000000000
      0.1309018267D+00  0.1000000000D+01
 P   3 1.00       0.000000000000
      0.9468097062D+01  0.5688833201D-01
      0.2010354514D+01  0.3129405934D+00
      0.5477100471D+00  0.7606501651D+00
 P   1 1.00       0.000000000000
      0.1526861380D+00  0.1000000000D+01
 D   1 1.00       0.000000000000
      0.8000000000D+00  0.1000000000D+01
 ****
     51 0
 S   5 1.00       0.000000000000
      0.1238401694D+04  0.5517365048D-02
      0.1862900499D+03  0.4108882856D-01
      0.4225117635D+02  0.1822538213D+00
      0.1167655793D+02  0.4682845944D+00
      0.3593050648D+01  0.4457581734D+00
 S   1 1.00       0.000000000000
      0.4024514736D+00  0.1000000000D+01
 S   1 1.00       0.000000000000
      0.1309018267D+00  0.1000000000D+01
 P   3 1.00       0.000000000000
      0.9468097062D+01  0.5688833201D-01
      0.2010354514D+01  0.3129405934D+00
      0.5477100471D+00  0.7606501651D+00
 P   1 1.00       0.000000000000
      0.1526861380D+00  0.1000000000D+01
 D   1 1.00       0.000000000000
      0.8000000000D+00  0.1000000000D+01
 ****
     52 0
 S   3 1.00       0.000000000000
      0.1301070100D+02  0.3348548481D-01
      0.1962257200D+01  0.2347218709D+00
      0.4445379600D+00  0.8137702853D+00
 S   1 1.00       0.000000000000
      0.1219496200D+00  0.1000000000D+01
 P   1 1.00       0.000000000000
      0.8000000000D+00  0.1000000000D+01
 ****
     53 0
 S   3 1.00       0.000000000000
      0.1301070100D+02  0.3348548481D-01
      0.1962257200D+01  0.2347218709D+00
      0.4445379600D+00  0.8137702853D+00
 S   1 1.00       0.000000000000
      0.1219496200D+00  0.1000000000D+01
 P   1 1.00       0.000000000000
      0.8000000000D+00  0.1000000000D+01
 ****
     54 0
 S   3 1.00       0.000000000000
      0.1301070100D+02  0.3348548481D-01
      0.1962257200D+01  0.2347218709D+00
      0.4445379600D+00  0.8137702853D+00
 S   1 1.00       0.000000000000
      0.1219496200D+00  0.1000000000D+01
 P   1 1.00       0.000000000000
      0.8000000000D+00  0.1000000000D+01
 ****
     55 0
 S   3 1.00       0.000000000000
      0.1301070100D+02  0.3348548481D-01
      0.1962257200D+01  0.2347218709D+00
      0.4445379600D+00  0.8137702853D+00
 S   1 1.00       0.000000000000
      0.1219496200D+00  0.1000000000D+01
 P   1 1.00       0.000000000000
      0.8000000000D+00  0.1000000000D+01
 ****
     56 0
 S   3 1.00       0.000000000000
      0.1301070100D+02  0.3348548481D-01
      0.1962257200D+01  0.2347218709D+00
      0.4445379600D+00  0.8137702853D+00
 S   1 1.00       0.000000000000
      0.1219496200D+00  0.1000000000D+01
 P   1 1.00       0.000000000000
      0.8000000000D+00  0.1000000000D+01
 ****
     57 0
 S   3 1.00       0.000000000000
      0.1301070100D+02  0.3348548481D-01
      0.1962257200D+01  0.2347218709D+00
      0.4445379600D+00  0.8137702853D+00
 S   1 1.00       0.000000000000
      0.1219496200D+00  0.1000000000D+01
 P   1 1.00       0.000000000000
      0.8000000000D+00  0.1000000000D+01
 ****

 There are   743 symmetry adapted cartesian basis functions of A   symmetry.
 There are   694 symmetry adapted basis functions of A   symmetry.
   694 basis functions,  1266 primitive gaussians,   743 cartesian basis functions
   178 alpha electrons      178 beta electrons
       nuclear repulsion energy      6655.8139884561 Hartrees.
 IExCor=  402 DFT=T Ex+Corr=B3LYP ExCW=0 ScaHFX=  0.200000
 ScaDFX=  0.800000  0.720000  1.000000  0.810000 ScalE2=  1.000000  1.000000
 IRadAn=      5 IRanWt=     -1 IRanGd=            0 ICorTp=0 IEmpDi=  4
 NAtoms=   57 NActive=   57 NUniq=   57 SFac= 1.00D+00 NAtFMM=   60 NAOKFM=F Big=F
 Integral buffers will be    131072 words long.
 Raffenetti 2 integral format.
 Two-electron integral symmetry is turned on.
 Force PCM accuracy= 1.00D-12.
 ------------------------------------------------------------------------------
 Polarizable Continuum Model (PCM)
 =================================
 Model                : PCM.
 Atomic radii         : UFF (Universal Force Field).
 Polarization charges : Total charges.
 Charge compensation  : None.
 Solution method      : On-the-fly selection.
 Cavity type          : Scaled VdW (van der Waals Surface) (Alpha=1.100).
 Cavity algorithm     : GePol (No added spheres)
                        Default sphere list used, NSphG=   57.
                        Lebedev-Laikov grids with approx.  5.0 points / Ang**2.
                        Smoothing algorithm: York/Karplus (Gamma=1.0000).
                        Polarization charges: spherical gaussians, with
                                              point-specific exponents (IZeta= 3).
                        Self-potential: point-specific (ISelfS= 7).
                        Self-field    : sphere-specific E.n sum rule (ISelfD= 2).
 Solvent              : n,n-DiMethylFormamide, Eps=  37.219000 Eps(inf)=   2.046330
 ------------------------------------------------------------------------------
 GePol: Number of generator spheres                  =      57
 GePol: Total number of spheres                      =      57
 GePol: Number of exposed spheres                    =      57 (100.00%)
 GePol: Number of points                             =    4625
 GePol: Average weight of points                     =       0.13
 GePol: Minimum weight of points                     =   0.84D-10
 GePol: Maximum weight of points                     =    0.21838
 GePol: Number of points with low weight             =     240
 GePol: Fraction of low-weight points (<1% of avg)   =       5.19%
 GePol: Cavity surface area                          =    588.921 Ang**2
 GePol: Cavity volume                                =    659.404 Ang**3
 Leave Link  301 at Wed Apr 12 11:54:27 2023, MaxMem=  8053063680 cpu:               0.7 elap:               0.1
 (Enter /scr/programas/g16/l302.exe)
 NPDir=0 NMtPBC=     1 NCelOv=     1 NCel=       1 NClECP=     1 NCelD=      1
         NCelK=      1 NCelE2=     1 NClLst=     1 CellRange=     0.0.
 One-electron integrals computed using PRISM.
 One-electron integral symmetry used in STVInt
 NBasis=   694 RedAO= T EigKep=  1.87D-04  NBF=   694
 NBsUse=   694 1.00D-06 EigRej= -1.00D+00 NBFU=   694
 Precomputing XC quadrature grid using
 IXCGrd= 4 IRadAn=           5 IRanWt=          -1 IRanGd=           0 AccXCQ= 1.00D-12.
 Defaulting to unpruned grid for atomic number  78.
 Generated NRdTot=       0 NPtTot=           0 NUsed=           0 NTot=          32
 NSgBfM=   690   690   690   690   690 MxSgAt=    57 MxSgA2=    57.
 Leave Link  302 at Wed Apr 12 11:54:29 2023, MaxMem=  8053063680 cpu:              15.4 elap:               1.3
 (Enter /scr/programas/g16/l303.exe)
 DipDrv:  MaxL=1.
 Leave Link  303 at Wed Apr 12 11:54:29 2023, MaxMem=  8053063680 cpu:               1.1 elap:               0.1
 (Enter /scr/programas/g16/l401.exe)
 ExpMin= 4.71D-02 ExpMax= 2.79D+06 ExpMxC= 3.32D+04 IAcc=3 IRadAn=         5 AccDes= 0.00D+00
 Harris functional with IExCor=  402 and IRadAn=       5 diagonalized for initial guess.
 HarFok:  IExCor=  402 AccDes= 0.00D+00 IRadAn=         5 IDoV= 1 UseB2=F ITyADJ=14
 ICtDFT=  3500011 ScaDFX=  1.000000  1.000000  1.000000  1.000000
 Defaulting to unpruned grid for atomic number  78.
 FoFCou: FMM=F IPFlag=           0 FMFlag=      100000 FMFlg1=           0
         NFxFlg=           0 DoJE=T BraDBF=F KetDBF=T FulRan=T
         wScrn=  0.000000 ICntrl=       500 IOpCl=  0 I1Cent=   200000004 NGrid=           0
         NMat0=    1 NMatS0=      1 NMatT0=    0 NMatD0=    1 NMtDS0=    0 NMtDT0=    0
 Petite list used in FoFCou.
 Harris En= -19353.9597714349    
 JPrj=0 DoOrth=F DoCkMO=F.
 Leave Link  401 at Wed Apr 12 11:54:34 2023, MaxMem=  8053063680 cpu:              62.9 elap:               5.3
 (Enter /scr/programas/g16/l502.exe)
 Integral symmetry usage will be decided dynamically.
 Closed shell SCF:
 Using DIIS extrapolation, IDIIS=  1040.
 NGot=  8053063680 LenX=  8051941964 LenY=  8051389172
 Requested convergence on RMS density matrix=1.00D-08 within 200 cycles.
 Requested convergence on MAX density matrix=1.00D-06.
 Requested convergence on             energy=1.00D-06.
 No special actions if energy rises.
 Fock matrices will be formed incrementally for  20 cycles.

 Cycle   1  Pass 1  IDiag  1:
 FoFJK:  IHMeth= 1 ICntrl=       0 DoSepK=F KAlg= 0 I1Cent=           0 FoldK=F
 IRaf= 640000000 NMat=       1 IRICut=       1 DoRegI=T DoRafI=F ISym2E= 0 IDoP0=0 IntGTp=1.
 FoFCou: FMM=F IPFlag=           0 FMFlag=      100000 FMFlg1=           0
         NFxFlg=           0 DoJE=F BraDBF=F KetDBF=F FulRan=T
         wScrn=  0.000000 ICntrl=         0 IOpCl=  0 I1Cent=           0 NGrid=           0
         NMat0=    1 NMatS0=      1 NMatT0=    0 NMatD0=    1 NMtDS0=    0 NMtDT0=    0
 Symmetry not used in FoFCou.
 Defaulting to unpruned grid for atomic number  78.
 Defaulting to unpruned grid for atomic number  78.
 Defaulting to unpruned grid for atomic number  78.
 Defaulting to unpruned grid for atomic number  78.
 Defaulting to unpruned grid for atomic number  78.
 Defaulting to unpruned grid for atomic number  78.
 Defaulting to unpruned grid for atomic number  78.
 Defaulting to unpruned grid for atomic number  78.
 Defaulting to unpruned grid for atomic number  78.
 Defaulting to unpruned grid for atomic number  78.
 Defaulting to unpruned grid for atomic number  78.
 Defaulting to unpruned grid for atomic number  78.
 Inv3:  Mode=1 IEnd=    64171875.
 Iteration    1 A*A^-1 deviation from unit magnitude is 1.28D-14 for   3106.
 Iteration    1 A*A^-1 deviation from orthogonality  is 7.15D-15 for   2577    597.
 Iteration    1 A^-1*A deviation from unit magnitude is 1.28D-14 for   3106.
 Iteration    1 A^-1*A deviation from orthogonality  is 8.72D-15 for   2401   2305.
 E= -19328.2529964225    
 DIIS: error= 5.98D-01 at cycle   1 NSaved=   1.
 NSaved= 1 IEnMin= 1 EnMin= -19328.2529964225     IErMin= 1 ErrMin= 5.98D-01
 ErrMax= 5.98D-01  0.00D+00 EMaxC= 1.00D-01 BMatC= 6.59D+01 BMatP= 6.59D+01
 IDIUse=3 WtCom= 0.00D+00 WtEn= 1.00D+00
 Coeff-Com:  0.100D+01
 Coeff-En:   0.100D+01
 Coeff:      0.100D+01
 Gap=     0.138 Goal=   None    Shift=    0.000
 GapD=    0.138 DampG=1.000 DampE=0.125 DampFc=0.1250 IDamp=-1.
 Damping current iteration by 1.25D-01
 RMSDP=4.81D-02 MaxDP=9.83D+00              OVMax= 9.45D-01

 Cycle   2  Pass 1  IDiag  1:
 RMSU=  6.01D-03    CP:  1.01D+00
 E= -19330.8277463097     Delta-E=       -2.574749887237 Rises=F Damp=T
 DIIS: error= 5.17D-01 at cycle   2 NSaved=   2.
 NSaved= 2 IEnMin= 2 EnMin= -19330.8277463097     IErMin= 2 ErrMin= 5.17D-01
 ErrMax= 5.17D-01  0.00D+00 EMaxC= 1.00D-01 BMatC= 4.45D+01 BMatP= 6.59D+01
 IDIUse=3 WtCom= 0.00D+00 WtEn= 1.00D+00
 Coeff-Com: -0.268D+01 0.368D+01
 Coeff-En:   0.446D-01 0.955D+00
 Coeff:      0.446D-01 0.955D+00
 Gap=     0.041 Goal=   None    Shift=    0.000
 RMSDP=1.24D-02 MaxDP=2.11D+00 DE=-2.57D+00 OVMax= 1.00D+00

 Cycle   3  Pass 1  IDiag  1:
 RMSU=  9.85D-03    CP:  1.02D+00  2.24D+00
 E= -19330.1747389938     Delta-E=        0.653007315908 Rises=F Damp=F
 DIIS: error= 2.21D-01 at cycle   3 NSaved=   3.
 NSaved= 3 IEnMin= 2 EnMin= -19330.8277463097     IErMin= 3 ErrMin= 2.21D-01
 ErrMax= 2.21D-01  0.00D+00 EMaxC= 1.00D-01 BMatC= 1.15D+01 BMatP= 4.45D+01
 IDIUse=3 WtCom= 0.00D+00 WtEn= 1.00D+00
 EnCoef did   100 forward-backward iterations
 Coeff-Com:  0.989D-01 0.134D+00 0.767D+00
 Coeff-En:   0.464D+00 0.718D-02 0.528D+00
 Coeff:      0.464D+00 0.718D-02 0.528D+00
 Gap=    -0.056 Goal=   None    Shift=    0.000
 RMSDP=1.27D-02 MaxDP=2.82D+00 DE= 6.53D-01 OVMax= 7.33D-01

 Cycle   4  Pass 1  IDiag  1:
 RMSU=  5.05D-03    CP:  9.87D-01  5.57D-01  4.19D-01
 E= -19339.7252422460     Delta-E=       -9.550503252176 Rises=F Damp=F
 DIIS: error= 2.11D-02 at cycle   4 NSaved=   4.
 NSaved= 4 IEnMin= 4 EnMin= -19339.7252422460     IErMin= 4 ErrMin= 2.11D-02
 ErrMax= 2.11D-02  0.00D+00 EMaxC= 1.00D-01 BMatC= 2.69D-01 BMatP= 1.15D+01
 IDIUse=3 WtCom= 7.89D-01 WtEn= 2.11D-01
 Coeff-Com:  0.128D+00-0.131D+00-0.998D-02 0.101D+01
 Coeff-En:   0.000D+00 0.000D+00 0.000D+00 0.100D+01
 Coeff:      0.101D+00-0.104D+00-0.787D-02 0.101D+01
 Gap=     0.182 Goal=   None    Shift=    0.000
 RMSDP=2.97D-03 MaxDP=8.82D-01 DE=-9.55D+00 OVMax= 3.81D-01

 Cycle   5  Pass 1  IDiag  1:
 RMSU=  2.81D-03    CP:  9.86D-01  4.89D-01  3.39D-01  1.07D+00
 E= -19339.4719684498     Delta-E=        0.253273796203 Rises=F Damp=F
 DIIS: error= 2.40D-02 at cycle   5 NSaved=   5.
 NSaved= 5 IEnMin= 4 EnMin= -19339.7252422460     IErMin= 4 ErrMin= 2.11D-02
 ErrMax= 2.40D-02  0.00D+00 EMaxC= 1.00D-01 BMatC= 4.99D-01 BMatP= 2.69D-01
 IDIUse=2 WtCom= 0.00D+00 WtEn= 1.00D+00
 Coeff-En:   0.000D+00 0.000D+00 0.000D+00 0.634D+00 0.366D+00
 Coeff:      0.000D+00 0.000D+00 0.000D+00 0.634D+00 0.366D+00
 Gap=     0.089 Goal=   None    Shift=    0.000
 RMSDP=1.39D-03 MaxDP=1.16D-01 DE= 2.53D-01 OVMax= 2.74D-01

 Cycle   6  Pass 1  IDiag  1:
 RMSU=  1.09D-03    CP:  9.85D-01  5.01D-01  3.39D-01  1.17D+00  7.45D-01
 E= -19339.9025234147     Delta-E=       -0.430554964907 Rises=F Damp=F
 DIIS: error= 1.95D-02 at cycle   6 NSaved=   6.
 NSaved= 6 IEnMin= 6 EnMin= -19339.9025234147     IErMin= 6 ErrMin= 1.95D-02
 ErrMax= 1.95D-02  0.00D+00 EMaxC= 1.00D-01 BMatC= 1.14D-01 BMatP= 2.69D-01
 IDIUse=3 WtCom= 8.05D-01 WtEn= 1.95D-01
 Coeff-Com: -0.260D-01 0.336D-01-0.531D-03 0.419D+00 0.248D+00 0.326D+00
 Coeff-En:   0.000D+00 0.000D+00 0.000D+00 0.261D+00 0.000D+00 0.739D+00
 Coeff:     -0.209D-01 0.270D-01-0.427D-03 0.388D+00 0.200D+00 0.407D+00
 Gap=     0.108 Goal=   None    Shift=    0.000
 RMSDP=1.49D-03 MaxDP=5.36D-01 DE=-4.31D-01 OVMax= 1.29D-01

 Cycle   7  Pass 1  IDiag  1:
 RMSU=  4.01D-04    CP:  9.85D-01  5.18D-01  3.85D-01  1.05D+00  4.62D-01
                    CP:  1.67D-01
 E= -19339.9962553982     Delta-E=       -0.093731983514 Rises=F Damp=F
 DIIS: error= 5.85D-03 at cycle   7 NSaved=   7.
 NSaved= 7 IEnMin= 7 EnMin= -19339.9962553982     IErMin= 7 ErrMin= 5.85D-03
 ErrMax= 5.85D-03  0.00D+00 EMaxC= 1.00D-01 BMatC= 1.20D-02 BMatP= 1.14D-01
 IDIUse=3 WtCom= 9.42D-01 WtEn= 5.85D-02
 Coeff-Com: -0.720D-02 0.932D-02-0.410D-02 0.121D+00 0.394D-01 0.241D+00
 Coeff-Com:  0.601D+00
 Coeff-En:   0.000D+00 0.000D+00 0.000D+00 0.000D+00 0.000D+00 0.116D+00
 Coeff-En:   0.884D+00
 Coeff:     -0.678D-02 0.878D-02-0.386D-02 0.114D+00 0.371D-01 0.234D+00
 Coeff:      0.617D+00
 Gap=     0.086 Goal=   None    Shift=    0.000
 RMSDP=4.04D-04 MaxDP=1.21D-01 DE=-9.37D-02 OVMax= 3.22D-02

 Cycle   8  Pass 1  IDiag  1:
 RMSU=  1.39D-04    CP:  9.85D-01  5.14D-01  3.72D-01  1.09D+00  5.08D-01
                    CP:  3.70D-01  6.78D-01
 E= -19340.0056688060     Delta-E=       -0.009413407774 Rises=F Damp=F
 DIIS: error= 1.27D-03 at cycle   8 NSaved=   8.
 NSaved= 8 IEnMin= 8 EnMin= -19340.0056688060     IErMin= 8 ErrMin= 1.27D-03
 ErrMax= 1.27D-03  0.00D+00 EMaxC= 1.00D-01 BMatC= 1.06D-03 BMatP= 1.20D-02
 IDIUse=3 WtCom= 9.87D-01 WtEn= 1.27D-02
 Coeff-Com: -0.781D-03 0.921D-03-0.167D-02 0.113D-01-0.123D-01 0.977D-01
 Coeff-Com:  0.363D+00 0.542D+00
 Coeff-En:   0.000D+00 0.000D+00 0.000D+00 0.000D+00 0.000D+00 0.000D+00
 Coeff-En:   0.318D-01 0.968D+00
 Coeff:     -0.771D-03 0.909D-03-0.165D-02 0.112D-01-0.121D-01 0.965D-01
 Coeff:      0.359D+00 0.547D+00
 Gap=     0.089 Goal=   None    Shift=    0.000
 RMSDP=9.38D-05 MaxDP=1.18D-02 DE=-9.41D-03 OVMax= 1.14D-02

 Cycle   9  Pass 1  IDiag  1:
 RMSU=  5.33D-05    CP:  9.85D-01  5.12D-01  3.74D-01  1.08D+00  5.05D-01
                    CP:  3.54D-01  7.77D-01  6.41D-01
 E= -19340.0064552937     Delta-E=       -0.000786487741 Rises=F Damp=F
 DIIS: error= 6.25D-04 at cycle   9 NSaved=   9.
 NSaved= 9 IEnMin= 9 EnMin= -19340.0064552937     IErMin= 9 ErrMin= 6.25D-04
 ErrMax= 6.25D-04  0.00D+00 EMaxC= 1.00D-01 BMatC= 2.50D-04 BMatP= 1.06D-03
 IDIUse=3 WtCom= 9.94D-01 WtEn= 6.25D-03
 Coeff-Com: -0.192D-03 0.118D-03-0.359D-03-0.457D-02-0.107D-01 0.443D-01
 Coeff-Com:  0.149D+00 0.359D+00 0.463D+00
 Coeff-En:   0.000D+00 0.000D+00 0.000D+00 0.000D+00 0.000D+00 0.000D+00
 Coeff-En:   0.000D+00 0.196D+00 0.804D+00
 Coeff:     -0.191D-03 0.117D-03-0.356D-03-0.454D-02-0.106D-01 0.440D-01
 Coeff:      0.148D+00 0.358D+00 0.465D+00
 Gap=     0.090 Goal=   None    Shift=    0.000
 RMSDP=3.30D-05 MaxDP=4.84D-03 DE=-7.86D-04 OVMax= 4.59D-03

 Cycle  10  Pass 1  IDiag  1:
 RMSU=  1.90D-05    CP:  9.85D-01  5.13D-01  3.73D-01  1.08D+00  5.07D-01
                    CP:  3.64D-01  7.71D-01  7.18D-01  6.77D-01
 E= -19340.0066885718     Delta-E=       -0.000233278108 Rises=F Damp=F
 DIIS: error= 1.84D-04 at cycle  10 NSaved=  10.
 NSaved=10 IEnMin=10 EnMin= -19340.0066885718     IErMin=10 ErrMin= 1.84D-04
 ErrMax= 1.84D-04  0.00D+00 EMaxC= 1.00D-01 BMatC= 1.63D-05 BMatP= 2.50D-04
 IDIUse=3 WtCom= 9.98D-01 WtEn= 1.84D-03
 Coeff-Com: -0.165D-03 0.136D-03 0.154D-04-0.425D-02-0.281D-02 0.821D-02
 Coeff-Com:  0.907D-02 0.102D+00 0.241D+00 0.647D+00
 Coeff-En:   0.000D+00 0.000D+00 0.000D+00 0.000D+00 0.000D+00 0.000D+00
 Coeff-En:   0.000D+00 0.000D+00 0.000D+00 0.100D+01
 Coeff:     -0.165D-03 0.136D-03 0.153D-04-0.424D-02-0.281D-02 0.819D-02
 Coeff:      0.905D-02 0.102D+00 0.241D+00 0.648D+00
 Gap=     0.090 Goal=   None    Shift=    0.000
 RMSDP=1.68D-05 MaxDP=6.31D-03 DE=-2.33D-04 OVMax= 8.74D-04

 Cycle  11  Pass 1  IDiag  1:
 RMSU=  5.07D-06    CP:  9.85D-01  5.13D-01  3.73D-01  1.09D+00  5.10D-01
                    CP:  3.72D-01  7.66D-01  7.40D-01  7.42D-01  8.26D-01
 E= -19340.0067027603     Delta-E=       -0.000014188518 Rises=F Damp=F
 DIIS: error= 5.48D-05 at cycle  11 NSaved=  11.
 NSaved=11 IEnMin=11 EnMin= -19340.0067027603     IErMin=11 ErrMin= 5.48D-05
 ErrMax= 5.48D-05  0.00D+00 EMaxC= 1.00D-01 BMatC= 1.72D-06 BMatP= 1.63D-05
 IDIUse=1 WtCom= 1.00D+00 WtEn= 0.00D+00
 Coeff-Com:  0.217D-04-0.460D-04 0.469D-04-0.174D-02-0.315D-03-0.341D-03
 Coeff-Com: -0.990D-02 0.230D-01 0.901D-01 0.366D+00 0.533D+00
 Coeff:      0.217D-04-0.460D-04 0.469D-04-0.174D-02-0.315D-03-0.341D-03
 Coeff:     -0.990D-02 0.230D-01 0.901D-01 0.366D+00 0.533D+00
 Gap=     0.090 Goal=   None    Shift=    0.000
 RMSDP=2.93D-06 MaxDP=4.68D-04 DE=-1.42D-05 OVMax= 4.09D-04

 Cycle  12  Pass 1  IDiag  1:
 RMSU=  2.33D-06    CP:  9.85D-01  5.13D-01  3.73D-01  1.09D+00  5.10D-01
                    CP:  3.72D-01  7.68D-01  7.44D-01  7.54D-01  8.54D-01
                    CP:  7.78D-01
 E= -19340.0067043607     Delta-E=       -0.000001600361 Rises=F Damp=F
 DIIS: error= 1.79D-05 at cycle  12 NSaved=  12.
 NSaved=12 IEnMin=12 EnMin= -19340.0067043607     IErMin=12 ErrMin= 1.79D-05
 ErrMax= 1.79D-05  0.00D+00 EMaxC= 1.00D-01 BMatC= 1.76D-07 BMatP= 1.72D-06
 IDIUse=1 WtCom= 1.00D+00 WtEn= 0.00D+00
 Coeff-Com:  0.852D-05-0.123D-04 0.148D-04-0.515D-03 0.126D-03-0.131D-02
 Coeff-Com: -0.559D-02 0.134D-02 0.190D-01 0.107D+00 0.280D+00 0.600D+00
 Coeff:      0.852D-05-0.123D-04 0.148D-04-0.515D-03 0.126D-03-0.131D-02
 Coeff:     -0.559D-02 0.134D-02 0.190D-01 0.107D+00 0.280D+00 0.600D+00
 Gap=     0.090 Goal=   None    Shift=    0.000
 RMSDP=1.25D-06 MaxDP=8.35D-05 DE=-1.60D-06 OVMax= 1.83D-04

 Cycle  13  Pass 1  IDiag  1:
 RMSU=  6.94D-07    CP:  9.85D-01  5.13D-01  3.73D-01  1.09D+00  5.10D-01
                    CP:  3.72D-01  7.68D-01  7.47D-01  7.59D-01  8.79D-01
                    CP:  8.51D-01  7.52D-01
 E= -19340.0067045581     Delta-E=       -0.000000197389 Rises=F Damp=F
 DIIS: error= 5.83D-06 at cycle  13 NSaved=  13.
 NSaved=13 IEnMin=13 EnMin= -19340.0067045581     IErMin=13 ErrMin= 5.83D-06
 ErrMax= 5.83D-06  0.00D+00 EMaxC= 1.00D-01 BMatC= 2.76D-08 BMatP= 1.76D-07
 IDIUse=1 WtCom= 1.00D+00 WtEn= 0.00D+00
 Coeff-Com:  0.108D-04-0.124D-04 0.710D-05-0.142D-03 0.101D-03-0.741D-03
 Coeff-Com: -0.215D-02-0.174D-02 0.115D-02 0.183D-01 0.100D+00 0.355D+00
 Coeff-Com:  0.530D+00
 Coeff:      0.108D-04-0.124D-04 0.710D-05-0.142D-03 0.101D-03-0.741D-03
 Coeff:     -0.215D-02-0.174D-02 0.115D-02 0.183D-01 0.100D+00 0.355D+00
 Coeff:      0.530D+00
 Gap=     0.090 Goal=   None    Shift=    0.000
 RMSDP=4.37D-07 MaxDP=4.73D-05 DE=-1.97D-07 OVMax= 1.04D-04

 Cycle  14  Pass 1  IDiag  1:
 RMSU=  2.80D-07    CP:  9.85D-01  5.13D-01  3.73D-01  1.09D+00  5.10D-01
                    CP:  3.72D-01  7.68D-01  7.47D-01  7.62D-01  8.84D-01
                    CP:  8.57D-01  8.27D-01  8.00D-01
 E= -19340.0067045883     Delta-E=       -0.000000030195 Rises=F Damp=F
 DIIS: error= 2.90D-06 at cycle  14 NSaved=  14.
 NSaved=14 IEnMin=14 EnMin= -19340.0067045883     IErMin=14 ErrMin= 2.90D-06
 ErrMax= 2.90D-06  0.00D+00 EMaxC= 1.00D-01 BMatC= 3.52D-09 BMatP= 2.76D-08
 IDIUse=1 WtCom= 1.00D+00 WtEn= 0.00D+00
 Coeff-Com:  0.186D-06-0.603D-07 0.770D-06-0.967D-05 0.280D-04-0.117D-03
[...]
   zzz       -0.205043D+02     -0.177142D+00     -0.657443D-01

 First dipole hyperpolarizability, Beta (input orientation).
 ||, _|_  parallel and perpendicular components, (z) with respect to z axis,
 vector components x,y,z.  Values do not include the 1/n! factor of 1/2.
 (esu units = statvolt**-1 cm**4 , SI units = C**3 m**3 J**-2)
 Beta(0;0,0):
               (au)            (10**-30 esu)      (10**-50 SI)
   || (z)    -0.212151D+03     -0.183282D+01     -0.680234D+00
   _|_(z)    -0.707171D+02     -0.610941D+00     -0.226745D+00
   x          0.163067D+06      0.140877D+04      0.522852D+03
   y         -0.505293D+03     -0.436534D+01     -0.162015D+01
   z         -0.106076D+04     -0.916411D+01     -0.340117D+01
   ||         0.326142D+05      0.281762D+03      0.104573D+03
   xxx        0.519907D+05      0.449159D+03      0.166701D+03
   xxy       -0.150792D+03     -0.130273D+01     -0.483495D+00
   yxy        0.280446D+04      0.242284D+02      0.899212D+01
   yyy       -0.187435D+02     -0.161929D+00     -0.600984D-01
   xxz       -0.264612D+03     -0.228604D+01     -0.848443D+00
   yxz       -0.131229D+02     -0.113372D+00     -0.420769D-01
   yyz       -0.684689D+02     -0.591518D+00     -0.219536D+00
   zxz       -0.439515D+03     -0.379707D+01     -0.140924D+01
   zyz        0.110494D+01      0.954582D-02      0.354284D-02
   zzz       -0.205043D+02     -0.177142D+00     -0.657443D-01
 Beta(-w;w,0) w= 1907.0nm:
                  (au)         (10**-30 esu)      (10**-50 SI)
   || (z)    -0.188935D+03     -0.163226D+01     -0.605795D+00
   _|_(z)    -0.499509D+02     -0.431537D+00     -0.160161D+00
   x          0.142642D+06      0.123232D+04      0.457363D+03
   y         -0.446356D+03     -0.385617D+01     -0.143118D+01
   z         -0.944677D+03     -0.816128D+01     -0.302898D+01
   ||         0.285293D+05      0.246471D+03      0.914751D+02
   xxx        0.451066D+05      0.389686D+03      0.144628D+03
   yxx       -0.128828D+03     -0.111297D+01     -0.413069D+00
   yyx        0.247334D+04      0.213678D+02      0.793044D+01
   zxx       -0.266118D+03     -0.229906D+01     -0.853272D+00
   zyx       -0.832344D+01     -0.719081D-01     -0.266880D-01
   zzx       -0.196620D+03     -0.169865D+01     -0.630435D+00
   xxy       -0.128168D+03     -0.110727D+01     -0.410952D+00
   yxy        0.280537D+04      0.242362D+02      0.899504D+01
   yyy       -0.204881D+02     -0.177001D+00     -0.656923D-01
   zxy       -0.750883D+01     -0.648705D-01     -0.240760D-01
   zyy       -0.577460D+02     -0.498880D+00     -0.185154D+00
   zzy        0.494955D-01      0.427602D-03      0.158700D-03
   xxz       -0.238151D+03     -0.205744D+01     -0.763597D+00
   yxz       -0.659639D+01     -0.569877D-01     -0.211504D-01
   yyz       -0.466309D+02     -0.402855D+00     -0.149516D+00
   zxz       -0.282378D+03     -0.243952D+01     -0.905405D+00
   zyz        0.441182D+00      0.381147D-02      0.141459D-02
   zzz       -0.405567D+01     -0.350378D-01     -0.130039D-01
 Beta(-2w;w,w) w= 1907.0nm:
                  (au)         (10**-30 esu)      (10**-50 SI)
   || (z)    -0.250717D+03     -0.216600D+01     -0.803890D+00
   _|_(z)    -0.926643D+02     -0.800547D+00     -0.297115D+00
   x          0.193718D+06      0.167357D+04      0.621129D+03
   y         -0.624387D+03     -0.539422D+01     -0.200201D+01
   z         -0.125359D+04     -0.108300D+02     -0.401945D+01
   ||         0.387446D+05      0.334723D+03      0.124229D+03
   xxx        0.605557D+05      0.523154D+03      0.194164D+03
   yxx       -0.171413D+03     -0.148088D+01     -0.549613D+00
   zxx       -0.374945D+03     -0.323924D+01     -0.120221D+01
   xyx       -0.170132D+03     -0.146981D+01     -0.545505D+00
   yyx        0.410962D+04      0.355039D+02      0.131769D+02
   zyx       -0.691793D-01     -0.597655D-03     -0.221814D-03
   xyy        0.452408D+04      0.390845D+02      0.145058D+02
   yyy       -0.377373D+02     -0.326021D+00     -0.120999D+00
   zyy       -0.610980D+02     -0.527839D+00     -0.195902D+00
   xzx       -0.354814D+03     -0.306532D+01     -0.113766D+01
   yzx       -0.426138D+00     -0.368150D-02     -0.136635D-02
   zzx       -0.214275D+03     -0.185117D+01     -0.687045D+00
   xzy       -0.523131D+00     -0.451945D-02     -0.167735D-02
   yzy       -0.539535D+02     -0.466117D+00     -0.172995D+00
   zzy        0.110931D+00      0.958359D-03      0.355686D-03
   xzz       -0.264127D+03     -0.228186D+01     -0.846888D+00
   yzz        0.280849D+00      0.242632D-02      0.900504D-03
   zzz       -0.221318D-02     -0.191201D-04     -0.709625D-05

 ----------------------------------------------------------------------

 Dipole orientation:
    78          0.32287773          0.00841751          1.87798330
     6         -0.14999785         -0.00260916         -1.96603849
     7          0.38738707         -3.81911332          2.55281511
     7          0.42310772          3.83965149          2.53055291
     6          0.24589477          5.62741317          0.74203857
     6          0.18918139         -5.61462417          0.77431344
     6          0.70235181          4.51656228          5.03870125
     6          0.66914224         -4.48499245          5.06351159
     6          0.86456748         -2.32798512          6.79060656
     6          0.88070464          2.36768940          6.77767466
     6          1.17603739          2.30831303          9.41242748
     6          0.79026601          7.08113134          5.70115607
     6          0.60422099          8.92813225          3.84321404
     6          0.33082739          8.19311479          1.31503664
     6          1.16091949         -2.25597390          9.42490518
     6          1.31624999          0.02930138         10.73911316
     6          0.75110422         -7.04692737          5.73753262
     6          0.54839553         -8.90202160          3.88935484
     1          0.97895647         -7.55706392          7.71686911
     6          0.25911131         -8.17772805          1.35977516
     6          0.73246249          0.01697706          5.54336025
     9          1.30688108         -4.39894174         10.76795735
     9          1.33566750          4.45764835         10.74380373
     1         -0.02478137         -4.93869287         -1.16050381
     6         -0.02034034        -10.13937334         -0.68494251
     1          0.62073244        -10.89588344          4.41479730
     1          0.02457150          4.94327214         -1.18914159
     6          0.18011655         10.14616297         -0.75148556
     1          1.00302327          7.59942066          7.68001420
     1          0.66499703         10.92420661          4.36119414
     6         -0.51648385         -0.01271545         -4.27409516
     6         -0.97277402         -0.02426266         -6.93908824
     6         -1.25870296          2.24206228         -8.32627384
     6         -1.18389028         -2.30269850         -8.31990750
     6         -1.73252883          2.24560378        -10.91074874
     6         -1.65650640         -2.32898083        -10.90451220
     6         -1.95264370         -0.04784661        -12.29131808
     7         -2.43163505         -0.05923433        -14.84960857
     1          1.54708462          0.03411202         12.78606824
     9         -1.49485951         11.97002201         -0.17878377
     9         -0.51331840          9.13680096         -2.97395902
     9          2.42057162         11.29767524         -1.11064211
     9          0.11587108         -9.12692470         -3.00778660
     9         -2.25305381        -11.34778683         -0.51606202
     9          1.78755461        -11.91801361         -0.51459351
     1         -1.10821573          4.04881523         -7.33574173
     1         -1.93728071          4.05715402        -11.86730541
     1         -1.79992821         -4.14885297        -11.85653290
     1         -0.97312589         -4.10074900         -7.32453969
     6         -2.73290100          2.30530742        -16.20438757
     6         -2.65365374         -2.43616824        -16.19803020
     1         -1.02162347          3.49824089        -16.09617843
     1         -4.33153551          3.43447114        -15.47359600
     1         -3.10137934          1.90858299        -18.20499340
     1         -4.21004049         -3.61817489        -15.45988680
     1         -0.90157225         -3.56862225        -16.09168363
     1         -3.04104517         -2.05749205        -18.19857089

 Electric dipole moment (dipole orientation):
 (Debye = 10**-18 statcoulomb cm , SI units = C m)
                  (au)            (Debye)         (10**-30 SI)
   Tot        0.104446D+01      0.265475D+01      0.885529D+01
   x          0.000000D+00      0.000000D+00      0.000000D+00
   y          0.000000D+00      0.000000D+00      0.000000D+00
   z          0.104446D+01      0.265475D+01      0.885529D+01

 Dipole polarizability, Alpha (dipole orientation).
 (esu units = cm**3 , SI units = C**2 m**2 J**-1)
 Alpha(0;0):
               (au)            (10**-24 esu)      (10**-40 SI)
   iso        0.643862D+03      0.954104D+02      0.106158D+03
   aniso      0.633416D+03      0.938625D+02      0.104436D+03
   xx         0.262306D+03      0.388698D+02      0.432485D+02
   yx         0.931191D+00      0.137988D+00      0.153533D+00
   yy         0.715554D+03      0.106034D+03      0.117979D+03
   zx         0.101817D+03      0.150877D+02      0.167873D+02
   zy         0.118677D+01      0.175862D+00      0.195672D+00
   zz         0.953724D+03      0.141327D+03      0.157248D+03

 Dipole polarizability, Alpha (dipole orientation).
 (esu units = cm**3 , SI units = C**2 m**2 J**-1)
 Alpha(0;0):
               (au)            (10**-24 esu)      (10**-40 SI)
   iso        0.643862D+03      0.954104D+02      0.106158D+03
   aniso      0.633416D+03      0.938625D+02      0.104436D+03
   xx         0.262306D+03      0.388698D+02      0.432485D+02
   yx         0.931191D+00      0.137988D+00      0.153533D+00
   yy         0.715554D+03      0.106034D+03      0.117979D+03
   zx         0.101817D+03      0.150877D+02      0.167873D+02
   zy         0.118677D+01      0.175862D+00      0.195672D+00
   zz         0.953724D+03      0.141327D+03      0.157248D+03
 Alpha(-w;w) w= 1907.0nm:
                  (au)         (10**-24 esu)      (10**-40 SI)
   iso        0.538679D+03      0.798241D+02      0.888163D+02
   aniso      0.569758D+03      0.844294D+02      0.939403D+02
   xx         0.199431D+03      0.295526D+02      0.328817D+02
   yx         0.112352D+01      0.166489D+00      0.185244D+00
   yy         0.592814D+03      0.878460D+02      0.977418D+02
   zx         0.924677D+02      0.137023D+02      0.152459D+02
   zy         0.112966D+01      0.167398D+00      0.186256D+00
   zz         0.823794D+03      0.122074D+03      0.135825D+03

 First dipole hyperpolarizability, Beta (dipole orientation).
 ||, _|_  parallel and perpendicular components, (z) with respect to z axis,
 vector components x,y,z.  Values do not include the 1/n! factor of 1/2.
 (esu units = statvolt**-1 cm**4 , SI units = C**3 m**3 J**-2)
 Beta(0;0,0):
               (au)            (10**-30 esu)      (10**-50 SI)
   || (z)     0.322310D+05      0.278451D+03      0.103344D+03
   _|_(z)     0.107437D+05      0.928170D+02      0.344481D+02
   x          0.249159D+05      0.215254D+03      0.798893D+02
   y          0.651142D+03      0.562536D+01      0.208780D+01
   z          0.161155D+06      0.139225D+04      0.516722D+03
   ||         0.326142D+05      0.281762D+03      0.104573D+03
   xxx        0.109941D+02      0.949805D-01      0.352511D-01
   xxy        0.147592D+02      0.127508D+00      0.473235D-01
   yxy        0.478608D+03      0.413480D+01      0.153459D+01
   yyy        0.396600D+02      0.342631D+00      0.127164D+00
   xxz        0.767194D+03      0.662796D+01      0.245990D+01
   yxz        0.655963D+02      0.566701D+00      0.210326D+00
   yyz        0.276385D+04      0.238775D+02      0.886190D+01
   zxz        0.781569D+04      0.675215D+02      0.250599D+02
   zyz        0.162628D+03      0.140498D+01      0.521444D+00
   zzz        0.501873D+05      0.433580D+03      0.160919D+03

 First dipole hyperpolarizability, Beta (dipole orientation).
 ||, _|_  parallel and perpendicular components, (z) with respect to z axis,
 vector components x,y,z.  Values do not include the 1/n! factor of 1/2.
 (esu units = statvolt**-1 cm**4 , SI units = C**3 m**3 J**-2)
 Beta(0;0,0):
               (au)            (10**-30 esu)      (10**-50 SI)
   || (z)     0.322310D+05      0.278451D+03      0.103344D+03
   _|_(z)     0.107437D+05      0.928170D+02      0.344481D+02
   x          0.249159D+05      0.215254D+03      0.798893D+02
   y          0.651142D+03      0.562536D+01      0.208780D+01
   z          0.161155D+06      0.139225D+04      0.516722D+03
   ||         0.326142D+05      0.281762D+03      0.104573D+03
   xxx        0.109941D+02      0.949805D-01      0.352511D-01
   xxy        0.147592D+02      0.127508D+00      0.473235D-01
   yxy        0.478608D+03      0.413480D+01      0.153459D+01
   yyy        0.396600D+02      0.342631D+00      0.127164D+00
   xxz        0.767194D+03      0.662796D+01      0.245990D+01
   yxz        0.655963D+02      0.566701D+00      0.210326D+00
   yyz        0.276385D+04      0.238775D+02      0.886190D+01
   zxz        0.781569D+04      0.675215D+02      0.250599D+02
   zyz        0.162628D+03      0.140498D+01      0.521444D+00
   zzz        0.501873D+05      0.433580D+03      0.160919D+03
 Beta(-w;w,0) w= 1907.0nm:
                  (au)         (10**-30 esu)      (10**-50 SI)
   || (z)     0.281935D+05      0.243570D+03      0.903987D+02
   _|_(z)     0.931855D+04      0.805050D+02      0.298786D+02
   x          0.218117D+05      0.188436D+03      0.699362D+02
   y          0.565094D+03      0.488198D+01      0.181190D+01
   z          0.140968D+06      0.121785D+04      0.451993D+03
   ||         0.285293D+05      0.246471D+03      0.914751D+02
   xxx        0.527442D+02      0.455669D+00      0.169117D+00
   yxx        0.120370D+02      0.103990D+00      0.385950D-01
   yyx        0.408439D+03      0.352860D+01      0.130960D+01
   zxx        0.763661D+03      0.659743D+01      0.244857D+01
   zyx        0.544668D+02      0.470551D+00      0.174640D+00
   zzx        0.675957D+04      0.583975D+02      0.216736D+02
   xxy        0.128442D+02      0.110964D+00      0.411833D-01
   yxy        0.468036D+03      0.404346D+01      0.150069D+01
   yyy        0.359244D+02      0.310359D+00      0.115187D+00
   zxy        0.551610D+02      0.476548D+00      0.176866D+00
   zyy        0.276644D+04      0.238999D+02      0.887021D+01
   zzy        0.138818D+03      0.119928D+01      0.445100D+00
   xxz        0.852581D+03      0.736563D+01      0.273368D+01
   yxz        0.528547D+02      0.456623D+00      0.169471D+00
   yyz        0.243963D+04      0.210765D+02      0.782232D+01
   zxz        0.677469D+04      0.585280D+02      0.217221D+02
   zyz        0.140793D+03      0.121634D+01      0.451432D+00
   zzz        0.435384D+05      0.376138D+03      0.139600D+03
 Beta(-2w;w,w) w= 1907.0nm:
                  (au)         (10**-30 esu)      (10**-50 SI)
   || (z)     0.382896D+05      0.330792D+03      0.122770D+03
   _|_(z)     0.128821D+05      0.111291D+03      0.413046D+02
   x          0.295925D+05      0.255657D+03      0.948844D+02
   y          0.749473D+03      0.647486D+01      0.240308D+01
   z          0.191448D+06      0.165396D+04      0.613851D+03
   ||         0.387446D+05      0.334723D+03      0.124229D+03
   xxx        0.113748D+03      0.982694D+00      0.364717D+00
   yxx        0.146884D+02      0.126897D+00      0.470964D-01
   zxx        0.113729D+04      0.982532D+01      0.364657D+01
   xyx        0.154285D+02      0.133290D+00      0.494694D-01
   yyx        0.655170D+03      0.566016D+01      0.210071D+01
   zyx        0.693200D+02      0.598871D+00      0.222265D+00
   xyy        0.722873D+03      0.624506D+01      0.231779D+01
   yyy        0.519113D+02      0.448473D+00      0.166446D+00
   zyy        0.446617D+04      0.385842D+02      0.143202D+02
   xzx        0.118952D+04      0.102765D+02      0.381403D+01
   yzx        0.657118D+02      0.567699D+00      0.210696D+00
   zzx        0.906848D+04      0.783446D+02      0.290768D+02
   xzy        0.651143D+02      0.562537D+00      0.208780D+00
   yzy        0.405725D+04      0.350515D+02      0.130090D+02
   zzy        0.182062D+03      0.157287D+01      0.583756D+00
   xzz        0.908112D+04      0.784538D+02      0.291174D+02
   yzz        0.184070D+03      0.159022D+01      0.590195D+00
   zzz        0.584503D+05      0.504965D+03      0.187413D+03

 ----------------------------------------------------------------------
 Unable to Open any file for archive entry.
 1\1\GINC-NQTCM16\SP\RB3LYP\Gen\C28H17F8N3Pt1\NQTCM\12-Apr-2023\0\\#p B
 3LYP/gen gfinput Integral(Grid=UltraFine,Acc2E=12) scf=maxcycle=200 Po
 lar=(DCSHG) CPHF=RdFreq scrf=(iefpcm,solvent=n,n-DiMethylFormamide)\\P
 rimeira Hiperpolarizabilidade\\0,1\Pt,0,1.008098,-0.002554,-0.023564\C
 ,0,-1.040778,0.006667,-0.073725\N,0,1.351872,-2.030588,-0.021851\N,0,1
 .371945,2.022246,-0.008714\C,0,0.428756,2.975399,-0.046602\C,0,0.39874
 9,-2.973631,-0.063676\C,0,2.709059,2.370496,0.042286\C,0,2.685437,-2.3
 92871,0.022148\C,0,3.612802,-1.258329,0.063032\C,0,3.625038,1.226484,0
 .074159\C,0,5.026887,1.184637,0.123314\C,0,3.072337,3.724956,0.058798\
 C,0,2.092345,4.709726,0.020417\C,0,0.74498,4.330839,-0.035451\C,0,5.01
 4989,-1.230647,0.112194\C,0,5.723602,-0.026575,0.142658\C,0,3.034924,-
 3.751151,0.020208\C,0,2.044754,-4.725434,-0.024916\H,0,4.086755,-4.028
 899,0.051962\C,0,0.700942,-4.332187,-0.06618\C,0,2.958548,-0.012537,0.
 045884\F,0,5.721231,-2.369922,0.130392\F,0,5.744306,2.316718,0.152261\
 H,0,-0.628075,-2.608296,-0.098527\C,0,-0.398457,-5.36228,-0.086817\H,0
 ,2.317868,-5.782506,-0.030833\H,0,-0.601877,2.621014,-0.083278\C,0,-0.
 341058,5.372771,-0.108014\H,0,4.126637,3.99134,0.102923\H,0,2.375744,5
 .7639,0.037457\C,0,-2.277388,0.010047,-0.060642\C,0,-3.707803,0.013889
 ,-0.028194\C,0,-4.447523,1.218102,0.023999\C,0,-4.45558,-1.186483,-0.0
 34584\C,0,-5.837091,1.229509,0.071927\C,0,-5.845235,-1.190852,0.01257\
 C,0,-6.585491,0.021157,0.070201\N,0,-7.961809,0.02453,0.122795\H,0,6.8
 13007,-0.032126,0.180343\F,0,-0.164121,6.329015,0.821111\F,0,-1.561973
 ,4.845788,0.078463\F,0,-0.351158,5.992134,-1.303574\F,0,-1.600001,-4.8
 15854,-0.333542\F,0,-0.487575,-6.010889,1.089708\F,0,-0.175967,-6.2973
 5,-1.027787\H,0,-3.910527,2.170366,0.029839\H,0,-6.346824,2.1915,0.112
 978\H,0,-6.361574,-2.1502,0.005956\H,0,-3.925014,-2.141478,-0.075718\C
 ,0,-8.685382,1.280514,0.185956\C,0,-8.693844,-1.228145,0.124189\H,0,-8
 .491668,1.917746,-0.696229\H,0,-8.422404,1.868759,1.084316\H,0,-9.7626
 69,1.077962,0.222194\H,0,-8.432484,-1.862718,0.990876\H,0,-8.506737,-1
 .821219,-0.789689\H,0,-9.76963,-1.020469,0.17373\\Version=EM64L-G16Rev
 C.01\State=1-A\HF=-19340.0067046\RMSD=5.031e-09\Dipole=1.0331808,-0.00
 86486,0.1528283\Polar=968.401954,-0.5185137,715.528713,2.6612028,3.108
 092,247.6540028\HyperPolar=51990.6952881,-150.7924155,2804.4625569,-18
 .7434978,-264.6122792,-13.1229455,-68.4688693,-439.5150149,1.10494,-20
 .5043469\Quadrupole=32.5808335,-7.8394655,-24.741368,-0.1236226,-1.083
 752,0.7451737\PG=C01 [X(C28H17F8N3Pt1)]\\@
 The archive entry for this job was punched.


 FLOATING POINT NUMBERS ARE LIKE SANDPILES:
 EVERY TIME THAT YOU MOVE ONE, YOU LOSE A LITTLE SAND 
 AND YOU PICK UP A LITTLE DIRT.
 Job cpu time:       0 days 10 hours 55 minutes 15.1 seconds.
 Elapsed time:       0 days  0 hours 54 minutes 47.8 seconds.
 File lengths (MBytes):  RWF=   5241 Int=      0 D2E=      0 Chk=     34 Scr=      1
 Normal termination of Gaussian 16 at Wed Apr 12 12:49:15 2023.
