 Entering Gaussian System, Link 0=g09
 Input=OPT_B3LYP_LANL2TZF_def2SVP_ONL_B3LYP_LANL2TZF_NLOIII_IEFPCM.com
 Output=OPT_B3LYP_LANL2TZF_def2SVP_ONL_B3LYP_LANL2TZF_NLOIII_IEFPCM.log
 Initial command:
 /home/scr/programs/g09/l1.exe "/home/scr/guest/Gau-26562.inp" -scrdir="/home/scr/guest/"
 Entering Link 1 = /home/scr/programs/g09/l1.exe PID=     26563.
  
 Copyright (c) 1988,1990,1992,1993,1995,1998,2003,2009,2013,
            Gaussian, Inc.  All Rights Reserved.
  
 This is part of the Gaussian(R) 09 program.  It is based on
 the Gaussian(R) 03 system (copyright 2003, Gaussian, Inc.),
 the Gaussian(R) 98 system (copyright 1998, Gaussian, Inc.),
 the Gaussian(R) 94 system (copyright 1995, Gaussian, Inc.),
 the Gaussian 92(TM) system (copyright 1992, Gaussian, Inc.),
 the Gaussian 90(TM) system (copyright 1990, Gaussian, Inc.),
 the Gaussian 88(TM) system (copyright 1988, Gaussian, Inc.),
 the Gaussian 86(TM) system (copyright 1986, Carnegie Mellon
 University), and the Gaussian 82(TM) system (copyright 1983,
 Carnegie Mellon University). Gaussian is a federally registered
 trademark of Gaussian, Inc.
  
 This software contains proprietary and confidential information,
 including trade secrets, belonging to Gaussian, Inc.
  
 This software is provided under written license and may be
 used, copied, transmitted, or stored only in accord with that
 written license.
  
 The following legend is applicable only to US Government
 contracts under FAR:
  
                    RESTRICTED RIGHTS LEGEND
  
 Use, reproduction and disclosure by the US Government is
 subject to restrictions as set forth in subparagraphs (a)
 and (c) of the Commercial Computer Software - Restricted
 Rights clause in FAR 52.227-19.
  
 Gaussian, Inc.
 340 Quinnipiac St., Bldg. 40, Wallingford CT 06492
  
  
 ---------------------------------------------------------------
 Warning -- This program may not be used in any manner that
 competes with the business of Gaussian, Inc. or will provide
 assistance to any competitor of Gaussian, Inc.  The licensee
 of this program is prohibited from giving any competitor of
 Gaussian, Inc. access to this program.  By using this program,
 the user acknowledges that Gaussian, Inc. is engaged in the
 business of creating and licensing software in the field of
 computational chemistry and represents and warrants to the
 licensee that it is not a competitor of Gaussian, Inc. and that
 it will not use this program in any manner prohibited above.
 ---------------------------------------------------------------
  

 Cite this work as:
 Gaussian 09, Revision D.01,
 M. J. Frisch, G. W. Trucks, H. B. Schlegel, G. E. Scuseria, 
 M. A. Robb, J. R. Cheeseman, G. Scalmani, V. Barone, B. Mennucci, 
 G. A. Petersson, H. Nakatsuji, M. Caricato, X. Li, H. P. Hratchian, 
 A. F. Izmaylov, J. Bloino, G. Zheng, J. L. Sonnenberg, M. Hada, 
 M. Ehara, K. Toyota, R. Fukuda, J. Hasegawa, M. Ishida, T. Nakajima, 
 Y. Honda, O. Kitao, H. Nakai, T. Vreven, J. A. Montgomery, Jr., 
 J. E. Peralta, F. Ogliaro, M. Bearpark, J. J. Heyd, E. Brothers, 
 K. N. Kudin, V. N. Staroverov, T. Keith, R. Kobayashi, J. Normand, 
 K. Raghavachari, A. Rendell, J. C. Burant, S. S. Iyengar, J. Tomasi, 
 M. Cossi, N. Rega, J. M. Millam, M. Klene, J. E. Knox, J. B. Cross, 
 V. Bakken, C. Adamo, J. Jaramillo, R. Gomperts, R. E. Stratmann, 
 O. Yazyev, A. J. Austin, R. Cammi, C. Pomelli, J. W. Ochterski, 
 R. L. Martin, K. Morokuma, V. G. Zakrzewski, G. A. Voth, 
 P. Salvador, J. J. Dannenberg, S. Dapprich, A. D. Daniels, 
 O. Farkas, J. B. Foresman, J. V. Ortiz, J. Cioslowski, 
 and D. J. Fox, Gaussian, Inc., Wallingford CT, 2013.
 
 ******************************************
 Gaussian 09:  EM64L-G09RevD.01 24-Apr-2013
                19-May-2023 
 ******************************************
 %chk=OPT_B3LYP_LANL2TZF_def2SVP_ONL_B3LYP_LANL2TZF_NLOIII_IEFPCM.chk
 %mem=100Gb
 %nproc=32
 Will use up to   32 processors via shared memory.
 ----------------------------------------------------------------------
 #p B3LYP/gen gfinput pseudo=read Integral(Grid=UltraFine,Acc2E=12) scf
 =maxcycle=200 Polar=(DCSHG) CPHF=RdFreq scrf=(iefpcm,read,solvent=n,n-
 DiMethylFormamide)
 ----------------------------------------------------------------------
 1/38=1,40=2,83=1/1;
 2/12=2,17=6,18=5,40=1/2;
 3/5=7,11=2,16=1,17=8,24=10,25=1,30=1,70=2203,72=148,74=-5,75=-5/1,2,3;
 4//1;
 5/5=2,7=200,38=5,53=148,87=12,98=1/2;
 8/6=4,10=90,11=11,87=12/1;
 10/6=20001,13=10,72=3,87=12/2;
 6/7=2,8=2,9=2,10=2,28=1/1;
 99/5=1,9=1/99;
 Leave Link    1 at Fri May 19 20:16:24 2023, MaxMem= 13421772800 cpu:       323.5
 (Enter /home/scr/programs/g09/l101.exe)
 ------------------------------
 Primeira Hiperpolarizabilidade
 ------------------------------
 Symbolic Z-matrix:
 Charge =  0 Multiplicity = 1
 Pt                    1.0081   -0.00255  -0.02356 
 C                    -1.04078   0.00667  -0.07373 
 N                     1.35187  -2.03059  -0.02185 
 N                     1.37195   2.02225  -0.00871 
 C                     0.42876   2.9754   -0.0466 
 C                     0.39875  -2.97363  -0.06368 
 C                     2.70906   2.3705    0.04229 
 C                     2.68544  -2.39287   0.02215 
 C                     3.6128   -1.25833   0.06303 
 C                     3.62504   1.22648   0.07416 
 C                     5.02689   1.18464   0.12331 
 C                     3.07234   3.72496   0.0588 
 C                     2.09234   4.70973   0.02042 
 C                     0.74498   4.33084  -0.03545 
 C                     5.01499  -1.23065   0.11219 
 C                     5.7236   -0.02658   0.14266 
 C                     3.03492  -3.75115   0.02021 
 C                     2.04475  -4.72543  -0.02492 
 H                     4.08676  -4.0289    0.05196 
 C                     0.70094  -4.33219  -0.06618 
 C                     2.95855  -0.01254   0.04588 
 F                     5.72123  -2.36992   0.13039 
 F                     5.74431   2.31672   0.15226 
 H                    -0.62808  -2.6083   -0.09853 
 C                    -0.39846  -5.36228  -0.08682 
 H                     2.31787  -5.78251  -0.03083 
 H                    -0.60188   2.62101  -0.08328 
 C                    -0.34106   5.37277  -0.10801 
 H                     4.12664   3.99134   0.10292 
 H                     2.37574   5.7639    0.03746 
 C                    -2.27739   0.01005  -0.06064 
 C                    -3.7078    0.01389  -0.02819 
 C                    -4.44752   1.2181    0.024 
 C                    -4.45558  -1.18648  -0.03458 
 C                    -5.83709   1.22951   0.07193 
 C                    -5.84524  -1.19085   0.01257 
 C                    -6.58549   0.02116   0.0702 
 N                    -7.96181   0.02453   0.1228 
 H                     6.81301  -0.03213   0.18034 
 F                    -0.16412   6.32902   0.82111 
 F                    -1.56197   4.84579   0.07846 
 F                    -0.35116   5.99213  -1.30357 
 F                    -1.6      -4.81585  -0.33354 
 F                    -0.48758  -6.01089   1.08971 
 F                    -0.17597  -6.29735  -1.02779 
 H                    -3.91053   2.17037   0.02984 
 H                    -6.34682   2.1915    0.11298 
 H                    -6.36157  -2.1502    0.00596 
 H                    -3.92501  -2.14148  -0.07572 
 C                    -8.68538   1.28051   0.18596 
 C                    -8.69384  -1.22815   0.12419 
 H                    -8.49167   1.91775  -0.69623 
 H                    -8.4224    1.86876   1.08432 
 H                    -9.76267   1.07796   0.22219 
 H                    -8.43248  -1.86272   0.99088 
 H                    -8.50674  -1.82122  -0.78969 
 H                    -9.76963  -1.02047   0.17373 
 
 NAtoms=     57 NQM=       57 NQMF=       0 NMMI=      0 NMMIF=      0
                NMic=       0 NMicF=      0.
                    Isotopes and Nuclear Properties:
 (Nuclear quadrupole moments (NQMom) in fm**2, nuclear magnetic moments (NMagM)
  in nuclear magnetons)

  Atom         1           2           3           4           5           6           7           8           9          10
 IAtWgt=         195          12          14          14          12          12          12          12          12          12
 AtmWgt= 194.9648000  12.0000000  14.0030740  14.0030740  12.0000000  12.0000000  12.0000000  12.0000000  12.0000000  12.0000000
 NucSpn=           1           0           2           2           0           0           0           0           0           0
 AtZEff=   0.0000000   0.0000000   0.0000000   0.0000000   0.0000000   0.0000000   0.0000000   0.0000000   0.0000000   0.0000000
 NQMom=    0.0000000   0.0000000   2.0440000   2.0440000   0.0000000   0.0000000   0.0000000   0.0000000   0.0000000   0.0000000
 NMagM=    0.6095000   0.0000000   0.4037610   0.4037610   0.0000000   0.0000000   0.0000000   0.0000000   0.0000000   0.0000000
 AtZNuc=  78.0000000   6.0000000   7.0000000   7.0000000   6.0000000   6.0000000   6.0000000   6.0000000   6.0000000   6.0000000

  Atom        11          12          13          14          15          16          17          18          19          20
 IAtWgt=          12          12          12          12          12          12          12          12           1          12
 AtmWgt=  12.0000000  12.0000000  12.0000000  12.0000000  12.0000000  12.0000000  12.0000000  12.0000000   1.0078250  12.0000000
 NucSpn=           0           0           0           0           0           0           0           0           1           0
 AtZEff=   0.0000000   0.0000000   0.0000000   0.0000000   0.0000000   0.0000000   0.0000000   0.0000000   0.0000000   0.0000000
 NQMom=    0.0000000   0.0000000   0.0000000   0.0000000   0.0000000   0.0000000   0.0000000   0.0000000   0.0000000   0.0000000
 NMagM=    0.0000000   0.0000000   0.0000000   0.0000000   0.0000000   0.0000000   0.0000000   0.0000000   2.7928460   0.0000000
 AtZNuc=   6.0000000   6.0000000   6.0000000   6.0000000   6.0000000   6.0000000   6.0000000   6.0000000   1.0000000   6.0000000

  Atom        21          22          23          24          25          26          27          28          29          30
 IAtWgt=          12          19          19           1          12           1           1          12           1           1
 AtmWgt=  12.0000000  18.9984033  18.9984033   1.0078250  12.0000000   1.0078250   1.0078250  12.0000000   1.0078250   1.0078250
 NucSpn=           0           1           1           1           0           1           1           0           1           1
 AtZEff=   0.0000000   0.0000000   0.0000000   0.0000000   0.0000000   0.0000000   0.0000000   0.0000000   0.0000000   0.0000000
 NQMom=    0.0000000   0.0000000   0.0000000   0.0000000   0.0000000   0.0000000   0.0000000   0.0000000   0.0000000   0.0000000
 NMagM=    0.0000000   2.6288670   2.6288670   2.7928460   0.0000000   2.7928460   2.7928460   0.0000000   2.7928460   2.7928460
 AtZNuc=   6.0000000   9.0000000   9.0000000   1.0000000   6.0000000   1.0000000   1.0000000   6.0000000   1.0000000   1.0000000

  Atom        31          32          33          34          35          36          37          38          39          40
 IAtWgt=          12          12          12          12          12          12          12          14           1          19
 AtmWgt=  12.0000000  12.0000000  12.0000000  12.0000000  12.0000000  12.0000000  12.0000000  14.0030740   1.0078250  18.9984033
 NucSpn=           0           0           0           0           0           0           0           2           1           1
 AtZEff=   0.0000000   0.0000000   0.0000000   0.0000000   0.0000000   0.0000000   0.0000000   0.0000000   0.0000000   0.0000000
 NQMom=    0.0000000   0.0000000   0.0000000   0.0000000   0.0000000   0.0000000   0.0000000   2.0440000   0.0000000   0.0000000
 NMagM=    0.0000000   0.0000000   0.0000000   0.0000000   0.0000000   0.0000000   0.0000000   0.4037610   2.7928460   2.6288670
 AtZNuc=   6.0000000   6.0000000   6.0000000   6.0000000   6.0000000   6.0000000   6.0000000   7.0000000   1.0000000   9.0000000

  Atom        41          42          43          44          45          46          47          48          49          50
 IAtWgt=          19          19          19          19          19           1           1           1           1          12
 AtmWgt=  18.9984033  18.9984033  18.9984033  18.9984033  18.9984033   1.0078250   1.0078250   1.0078250   1.0078250  12.0000000
 NucSpn=           1           1           1           1           1           1           1           1           1           0
 AtZEff=   0.0000000   0.0000000   0.0000000   0.0000000   0.0000000   0.0000000   0.0000000   0.0000000   0.0000000   0.0000000
 NQMom=    0.0000000   0.0000000   0.0000000   0.0000000   0.0000000   0.0000000   0.0000000   0.0000000   0.0000000   0.0000000
 NMagM=    2.6288670   2.6288670   2.6288670   2.6288670   2.6288670   2.7928460   2.7928460   2.7928460   2.7928460   0.0000000
 AtZNuc=   9.0000000   9.0000000   9.0000000   9.0000000   9.0000000   1.0000000   1.0000000   1.0000000   1.0000000   6.0000000

  Atom        51          52          53          54          55          56          57
 IAtWgt=          12           1           1           1           1           1           1
 AtmWgt=  12.0000000   1.0078250   1.0078250   1.0078250   1.0078250   1.0078250   1.0078250
 NucSpn=           0           1           1           1           1           1           1
 AtZEff=   0.0000000   0.0000000   0.0000000   0.0000000   0.0000000   0.0000000   0.0000000
 NQMom=    0.0000000   0.0000000   0.0000000   0.0000000   0.0000000   0.0000000   0.0000000
 NMagM=    0.0000000   2.7928460   2.7928460   2.7928460   2.7928460   2.7928460   2.7928460
 AtZNuc=   6.0000000   1.0000000   1.0000000   1.0000000   1.0000000   1.0000000   1.0000000
 Using perturbation frequencies:    0.000000    0.023893
 Leave Link  101 at Fri May 19 20:16:24 2023, MaxMem= 13421772800 cpu:         3.0
 (Enter /home/scr/programs/g09/l202.exe)
 Stoichiometry    C28H17F8N3Pt
 Framework group  C1[X(C28H17F8N3Pt)]
 Deg. of freedom   165
 Full point group                 C1      NOp   1
 Largest Abelian subgroup         C1      NOp   1
 Largest concise Abelian subgroup C1      NOp   1
                         Standard orientation:                         
 ---------------------------------------------------------------------
 Center     Atomic      Atomic             Coordinates (Angstroms)
 Number     Number       Type             X           Y           Z
 ---------------------------------------------------------------------
      1         78           0       -1.008098   -0.002554    0.023564
      2          6           0        1.040778    0.006667    0.073725
      3          7           0       -1.351872   -2.030588    0.021851
      4          7           0       -1.371945    2.022246    0.008714
      5          6           0       -0.428755    2.975399    0.046602
      6          6           0       -0.398749   -2.973631    0.063676
      7          6           0       -2.709059    2.370497   -0.042286
      8          6           0       -2.685437   -2.392870   -0.022148
      9          6           0       -3.612802   -1.258328   -0.063032
     10          6           0       -3.625038    1.226485   -0.074159
     11          6           0       -5.026887    1.184638   -0.123314
     12          6           0       -3.072336    3.724957   -0.058798
     13          6           0       -2.092344    4.709726   -0.020417
     14          6           0       -0.744979    4.330839    0.035451
     15          6           0       -5.014989   -1.230646   -0.112194
     16          6           0       -5.723602   -0.026574   -0.142658
     17          6           0       -3.034925   -3.751150   -0.020208
     18          6           0       -2.044755   -4.725434    0.024916
     19          1           0       -4.086756   -4.028898   -0.051962
     20          6           0       -0.700943   -4.332187    0.066180
     21          6           0       -2.958548   -0.012536   -0.045884
     22          9           0       -5.721231   -2.369921   -0.130392
     23          9           0       -5.744306    2.316719   -0.152261
     24          1           0        0.628075   -2.608296    0.098527
     25          6           0        0.398456   -5.362280    0.086817
     26          1           0       -2.317869   -5.782506    0.030833
     27          1           0        0.601877    2.621014    0.083278
     28          6           0        0.341059    5.372771    0.108014
     29          1           0       -4.126636    3.991341   -0.102923
     30          1           0       -2.375743    5.763900   -0.037457
     31          6           0        2.277388    0.010047    0.060642
     32          6           0        3.707803    0.013889    0.028194
     33          6           0        4.447523    1.218101   -0.023999
     34          6           0        4.455580   -1.186484    0.034584
     35          6           0        5.837091    1.229508   -0.071927
     36          6           0        5.845235   -1.190853   -0.012570
     37          6           0        6.585491    0.021156   -0.070201
     38          7           0        7.961809    0.024529   -0.122795
     39          1           0       -6.813007   -0.032125   -0.180343
     40          9           0        0.164122    6.329015   -0.821111
     41          9           0        1.561974    4.845788   -0.078463
     42          9           0        0.351159    5.992134    1.303574
     43          9           0        1.600000   -4.815854    0.333542
     44          9           0        0.487574   -6.010889   -1.089708
     45          9           0        0.175966   -6.297350    1.027787
     46          1           0        3.910527    2.170366   -0.029839
     47          1           0        6.346824    2.191499   -0.112978
     48          1           0        6.361574   -2.150201   -0.005956
     49          1           0        3.925014   -2.141478    0.075718
     50          6           0        8.685382    1.280513   -0.185956
     51          6           0        8.693844   -1.228146   -0.124189
     52          1           0        8.491668    1.917745    0.696229
     53          1           0        8.422404    1.868758   -1.084316
     54          1           0        9.762669    1.077961   -0.222194
     55          1           0        8.432484   -1.862719   -0.990876
     56          1           0        8.506737   -1.821220    0.789689
     57          1           0        9.769630   -1.020470   -0.173730
 ---------------------------------------------------------------------
 Rotational constants (GHZ):      0.0734786      0.0557567      0.0320899
 Leave Link  202 at Fri May 19 20:16:25 2023, MaxMem= 13421772800 cpu:         2.0
 (Enter /home/scr/programs/g09/l301.exe)
 General basis read from cards:  (5D, 7F)
 Centers:      19     24     26     27     29     30     39     46     47     48
 Centers:      49     52     53     54     55     56     57
 S 3 1.0
     Exponent=  1.8735840000D+01 Coefficients=  1.2600000000D-02
     Exponent=  2.8257120000D+00 Coefficients=  9.0620000000D-02
     Exponent=  6.4013700000D-01 Coefficients=  3.6204000000D-01
 S 2 1.0
     Exponent=  1.7560800000D-01 Coefficients=  5.8103000000D-01
     Exponent=  4.8174000000D-02 Coefficients=  1.0057000000D-01
 P 2 1.0
     Exponent=  6.0583900000D-01 Coefficients=  6.2430000000D-02
     Exponent=  1.2517700000D-01 Coefficients=  5.1108000000D-01
 ****
 Centers:       2      5      6      7      8      9     10     11     12     13
 Centers:      14     15     16     17     18     20     21     25     28     31
 Centers:      32     33     34     35     36     37     50     51
 S 5 1.0
     Exponent=  6.7799000000D+03 Coefficients=  6.8000000000D-04
     Exponent=  1.0172000000D+03 Coefficients=  5.2200000000D-03
     Exponent=  2.3157000000D+02 Coefficients=  2.6610000000D-02
     Exponent=  6.5547000000D+01 Coefficients=  1.0061000000D-01
     Exponent=  7.5339000000D+00 Coefficients=  2.2507000000D-01
 S 3 1.0
     Exponent=  2.1253000000D+01 Coefficients=  2.7367000000D-01
     Exponent=  7.5339000000D+00 Coefficients=  7.5460000000D-02
     Exponent=  2.8031000000D+00 Coefficients=  2.8605000000D-01
 S 3 1.0
     Exponent=  5.2151000000D-01 Coefficients=  1.6070000000D-02
     Exponent=  1.5957000000D-01 Coefficients=  5.1300000000D-03
     Exponent=  4.8825000000D-02 Coefficients=  1.5880000000D-02
 P 4 1.0
     Exponent=  1.8734000000D+01 Coefficients=  1.3640000000D-02
     Exponent=  4.1362000000D+00 Coefficients=  8.5630000000D-02
     Exponent=  1.2004000000D+00 Coefficients=  2.7954000000D-01
     Exponent=  3.8346000000D-01 Coefficients=  4.7211000000D-01
 P 2 1.0
     Exponent=  1.2129000000D-01 Coefficients=  3.6772000000D-01
     Exponent=  3.8365000000D-02 Coefficients=  4.1790000000D-02
 D 2 1.0
     Exponent=  4.1690000000D-01 Coefficients=  3.9300000000D-03
     Exponent=  1.0856090000D-01 Coefficients=  9.0200000000D-03
 ****
 Centers:       3      4     38
 S 5 1.0
     Exponent=  9.1556000000D+03 Coefficients=  6.9000000000D-04
     Exponent=  1.3736000000D+03 Coefficients=  5.3100000000D-03
     Exponent=  3.1273000000D+02 Coefficients=  2.7060000000D-02
     Exponent=  8.8547000000D+01 Coefficients=  1.0226000000D-01
     Exponent=  1.0246000000D+01 Coefficients=  2.2455000000D-01
 S 3 1.0
     Exponent=  2.8756000000D+01 Coefficients=  2.7778000000D-01
     Exponent=  1.0246000000D+01 Coefficients=  8.0530000000D-02
     Exponent=  3.8443000000D+00 Coefficients=  2.7936000000D-01
 S 3 1.0
     Exponent=  7.4650000000D-01 Coefficients=  5.8370000000D-01
     Exponent=  2.2475000000D-01 Coefficients=  4.7400000000D-03
     Exponent=  6.7666000000D-02 Coefficients=  7.7800000000D-03
 P 4 1.0
     Exponent=  2.6667000000D+01 Coefficients=  1.4440000000D-02
     Exponent=  5.9557000000D+00 Coefficients=  9.1270000000D-02
     Exponent=  1.7440000000D+00 Coefficients=  1.9910000000D-01
     Exponent=  5.5629000000D-01 Coefficients=  3.5770000000D-01
 P 2 1.0
     Exponent=  1.7315000000D-01 Coefficients=  3.4974000000D-01
     Exponent=  5.3894000000D-02 Coefficients=  3.5110000000D-02
 D 2 1.0
     Exponent=  6.6710400000D-01 Coefficients=  5.1000000000D-03
     Exponent=  1.4809700000D-01 Coefficients=  1.4730000000D-02
 ****
 Centers:      22     23     40     41     42     43     44     45
 S 5 1.0
     Exponent=  1.4846000000D+04 Coefficients=  7.1000000000D-04
     Exponent=  2.2274000000D+03 Coefficients=  5.4900000000D-03
     Exponent=  5.0714000000D+02 Coefficients=  2.7980000000D-02
     Exponent=  1.4364000000D+02 Coefficients=  1.0565000000D-01
     Exponent=  4.6740000000D+01 Coefficients=  1.4284000000D-01
 S 3 1.0
     Exponent=  4.6740000000D+01 Coefficients=  3.7330000000D-02
     Exponent=  1.6766000000D+01 Coefficients=  4.4874000000D-01
     Exponent=  6.3699000000D+00 Coefficients=  2.6633000000D-01
 S 3 1.0
     Exponent=  1.3164000000D+00 Coefficients=  1.7190000000D-02
     Exponent=  3.9009000000D-01 Coefficients=  5.4177000000D-01
     Exponent=  1.1559600000D-01 Coefficients=  2.8020000000D-02
 P 4 1.0
     Exponent=  4.3907000000D+01 Coefficients=  1.7020000000D-02
     Exponent=  9.9298000000D+00 Coefficients=  1.0664000000D-01
     Exponent=  2.9313000000D+00 Coefficients=  3.2653000000D-01
     Exponent=  9.1433000000D-01 Coefficients=  5.0561000000D-01
 P 2 1.0
     Exponent=  2.6783000000D-01 Coefficients=  2.9527000000D-01
     Exponent=  7.8454000000D-02 Coefficients=  4.3339000000D-01
 D 2 1.0
     Exponent=  5.1007000000D+00 Coefficients=  2.0600000000D-03
     Exponent=  1.2463800000D+00 Coefficients=  5.0074000000D-01
 ****
 Centers:       1
 S 1 1.00
     Exponent=  2.5470000000D+00 Coefficients=  1.0000000000D+00
 S 1 1.00
     Exponent=  1.6140000000D+00 Coefficients=  1.0000000000D+00
 S 1 1.00
     Exponent=  5.1670000000D-01 Coefficients=  1.0000000000D+00
 S 1 1.00
     Exponent=  2.6510000000D-01 Coefficients=  1.0000000000D+00
 S 1 1.00
     Exponent=  5.8000000000D-02 Coefficients=  1.0000000000D+00
 P 1 1.00
     Exponent=  2.9110000000D+00 Coefficients=  1.0000000000D+00
 P 1 1.00
     Exponent=  1.8360000000D+00 Coefficients=  1.0000000000D+00
 P 1 1.00
     Exponent=  5.9820000000D-01 Coefficients=  1.0000000000D+00
 P 1 1.00
     Exponent=  9.9600000000D-02 Coefficients=  1.0000000000D+00
 P 1 1.00
     Exponent=  2.9000000000D-02 Coefficients=  1.0000000000D+00
 D 1 1.00
     Exponent=  1.2430000000D+00 Coefficients=  1.0000000000D+00
 D 1 1.00
     Exponent=  4.2710000000D-01 Coefficients=  1.0000000000D+00
 D 1 1.00
     Exponent=  1.3700000000D-01 Coefficients=  1.0000000000D+00
 F 1 1.00
     Exponent=  9.9300000000D-01 Coefficients=  1.0000000000D+00
 ****
 ======================================================================================================
                                       Pseudopotential Parameters
 ======================================================================================================
  Center     Atomic      Valence      Angular      Power
  Number     Number     Electrons     Momentum     of R      Exponent        Coefficient   SO-Coeffient
 ======================================================================================================
    1         78           18
                                      G and up 
                                                     1      728.9394056       -0.16192680    0.00000000
                                                     2      320.6567800    -1320.28738520    0.00000000
                                                     2       52.8680174     -298.31781350    0.00000000
                                                     2       12.0280128      -87.58370650    0.00000000
                                                     2        3.5238913       -8.14932740    0.00000000
                                      S - G
                                                     0      409.4437358        2.73342180    0.00000000
                                                     1      274.5419231       59.70243290    0.00000000
                                                     2      127.5658570      891.45895500    0.00000000
                                                     2       32.9036631      368.44676560    0.00000000
                                                     2        5.0593880      238.02630900    0.00000000
                                                     2        4.1506556     -107.05564540    0.00000000
                                      P - G
                                                     0      466.1728892        1.88785680    0.00000000
                                                     1      120.7888259       76.01386290    0.00000000
                                                     2       36.4118791      343.55111160    0.00000000
                                                     2        5.6985408      119.49117860    0.00000000
                                      D - G
                                                     0      249.5650763        2.93436780    0.00000000
                                                     1      126.6678585       59.33065710    0.00000000
                                                     2       63.1430586      452.44451940    0.00000000
                                                     2       17.9059470      210.47694790    0.00000000
                                                     2        4.2239373       58.62541120    0.00000000
                                      F - G
                                                     0      121.8158799        3.95342530    0.00000000
                                                     1       60.8757030       53.85551820    0.00000000
                                                     2       31.4767147      247.43051330    0.00000000
                                                     2        9.8811751      127.81879760    0.00000000
                                                     2        2.7319874       15.37720460    0.00000000
    2          6
                                   No pseudopotential on this center.
    3          7
                                   No pseudopotential on this center.
    4          7
                                   No pseudopotential on this center.
    5          6
                                   No pseudopotential on this center.
    6          6
                                   No pseudopotential on this center.
    7          6
                                   No pseudopotential on this center.
    8          6
                                   No pseudopotential on this center.
    9          6
                                   No pseudopotential on this center.
   10          6
                                   No pseudopotential on this center.
   11          6
                                   No pseudopotential on this center.
   12          6
                                   No pseudopotential on this center.
   13          6
                                   No pseudopotential on this center.
   14          6
                                   No pseudopotential on this center.
   15          6
                                   No pseudopotential on this center.
   16          6
                                   No pseudopotential on this center.
   17          6
                                   No pseudopotential on this center.
   18          6
                                   No pseudopotential on this center.
   19          1
                                   No pseudopotential on this center.
   20          6
                                   No pseudopotential on this center.
   21          6
                                   No pseudopotential on this center.
   22          9
                                   No pseudopotential on this center.
   23          9
                                   No pseudopotential on this center.
   24          1
                                   No pseudopotential on this center.
   25          6
                                   No pseudopotential on this center.
   26          1
                                   No pseudopotential on this center.
   27          1
                                   No pseudopotential on this center.
   28          6
                                   No pseudopotential on this center.
   29          1
                                   No pseudopotential on this center.
   30          1
                                   No pseudopotential on this center.
   31          6
                                   No pseudopotential on this center.
   32          6
                                   No pseudopotential on this center.
   33          6
                                   No pseudopotential on this center.
   34          6
                                   No pseudopotential on this center.
   35          6
                                   No pseudopotential on this center.
   36          6
                                   No pseudopotential on this center.
   37          6
                                   No pseudopotential on this center.
   38          7
                                   No pseudopotential on this center.
   39          1
                                   No pseudopotential on this center.
   40          9
                                   No pseudopotential on this center.
   41          9
                                   No pseudopotential on this center.
   42          9
                                   No pseudopotential on this center.
   43          9
                                   No pseudopotential on this center.
   44          9
                                   No pseudopotential on this center.
   45          9
                                   No pseudopotential on this center.
   46          1
                                   No pseudopotential on this center.
   47          1
                                   No pseudopotential on this center.
   48          1
                                   No pseudopotential on this center.
   49          1
                                   No pseudopotential on this center.
   50          6
                                   No pseudopotential on this center.
   51          6
                                   No pseudopotential on this center.
   52          1
                                   No pseudopotential on this center.
   53          1
                                   No pseudopotential on this center.
   54          1
                                   No pseudopotential on this center.
   55          1
                                   No pseudopotential on this center.
   56          1
                                   No pseudopotential on this center.
   57          1
                                   No pseudopotential on this center.
 ======================================================================================================
 Ernie: Thresh=  0.10000D-02 Tol=  0.10000D-05 Strict=F.
 AO basis set in the form of general basis input (Overlap normalization):
      1 0
 S   1 1.00       0.000000000000
      0.2547000000D+01  0.1000000000D+01
 S   1 1.00       0.000000000000
      0.1614000000D+01  0.1000000000D+01
 S   1 1.00       0.000000000000
      0.5167000000D+00  0.1000000000D+01
 S   1 1.00       0.000000000000
      0.2651000000D+00  0.1000000000D+01
 S   1 1.00       0.000000000000
      0.5800000000D-01  0.1000000000D+01
 P   1 1.00       0.000000000000
      0.2911000000D+01  0.1000000000D+01
 P   1 1.00       0.000000000000
      0.1836000000D+01  0.1000000000D+01
 P   1 1.00       0.000000000000
      0.5982000000D+00  0.1000000000D+01
 P   1 1.00       0.000000000000
      0.9960000000D-01  0.1000000000D+01
 P   1 1.00       0.000000000000
      0.2900000000D-01  0.1000000000D+01
 D   1 1.00       0.000000000000
      0.1243000000D+01  0.1000000000D+01
 D   1 1.00       0.000000000000
      0.4271000000D+00  0.1000000000D+01
 D   1 1.00       0.000000000000
      0.1370000000D+00  0.1000000000D+01
 F   1 1.00       0.000000000000
      0.9930000000D+00  0.1000000000D+01
 ****
      2 0
 S   5 1.00       0.000000000000
      0.6779900000D+04  0.2263627398D-02
      0.1017200000D+04  0.1737666915D-01
      0.2315700000D+03  0.8858106628D-01
      0.6554700000D+02  0.3349169890D+00
      0.7533900000D+01  0.7492273802D+00
 S   3 1.00       0.000000000000
      0.2125300000D+02  0.4890586855D+00
      0.7533900000D+01  0.1348498864D+00
      0.2803100000D+01  0.5111822158D+00
 S   3 1.00       0.000000000000
      0.5215100000D+00  0.5066722729D+00
      0.1595700000D+00  0.1617441668D+00
      0.4882500000D-01  0.5006817482D+00
 P   4 1.00       0.000000000000
      0.1873400000D+02  0.1856071740D-01
      0.4136200000D+01  0.1165215712D+00
      0.1200400000D+01  0.3803858461D+00
      0.3834600000D+00  0.6424267075D+00
 P   2 1.00       0.000000000000
      0.1212900000D+00  0.9259484457D+00
      0.3836500000D-01  0.1052305709D+00
 D   2 1.00       0.000000000000
      0.4169000000D+00  0.3437908159D+00
      0.1085609000D+00  0.7890567836D+00
 ****
      3 0
 S   5 1.00       0.000000000000
      0.9155600000D+04  0.2287778170D-02
      0.1373600000D+04  0.1760594505D-01
      0.3127300000D+03  0.8972069171D-01
      0.8854700000D+02  0.3390553560D+00
      0.1024600000D+02  0.7445225914D+00
 S   3 1.00       0.000000000000
      0.2875600000D+02  0.4934715752D+00
      0.1024600000D+02  0.1430602130D+00
      0.3844300000D+01  0.4962784191D+00
 S   3 1.00       0.000000000000
      0.7465000000D+00  0.9882465417D+00
      0.2247500000D+00  0.8025164653D-02
      0.6766600000D-01  0.1317210570D-01
 P   4 1.00       0.000000000000
      0.2666700000D+02  0.2576511807D-01
      0.5955700000D+01  0.1628519617D+00
      0.1744000000D+01  0.3552517319D+00
      0.5562900000D+00  0.6382398016D+00
 P   2 1.00       0.000000000000
      0.1731500000D+00  0.9348692098D+00
      0.5389400000D-01  0.9385045449D-01
 D   2 1.00       0.000000000000
      0.6671040000D+00  0.2927527595D+00
      0.1480970000D+00  0.8455388525D+00
 ****
      4 0
 S   5 1.00       0.000000000000
      0.9155600000D+04  0.2287778170D-02
      0.1373600000D+04  0.1760594505D-01
      0.3127300000D+03  0.8972069171D-01
      0.8854700000D+02  0.3390553560D+00
      0.1024600000D+02  0.7445225914D+00
 S   3 1.00       0.000000000000
      0.2875600000D+02  0.4934715752D+00
      0.1024600000D+02  0.1430602130D+00
      0.3844300000D+01  0.4962784191D+00
 S   3 1.00       0.000000000000
      0.7465000000D+00  0.9882465417D+00
      0.2247500000D+00  0.8025164653D-02
      0.6766600000D-01  0.1317210570D-01
 P   4 1.00       0.000000000000
      0.2666700000D+02  0.2576511807D-01
      0.5955700000D+01  0.1628519617D+00
      0.1744000000D+01  0.3552517319D+00
      0.5562900000D+00  0.6382398016D+00
 P   2 1.00       0.000000000000
      0.1731500000D+00  0.9348692098D+00
      0.5389400000D-01  0.9385045449D-01
 D   2 1.00       0.000000000000
      0.6671040000D+00  0.2927527595D+00
      0.1480970000D+00  0.8455388525D+00
 ****
      5 0
 S   5 1.00       0.000000000000
      0.6779900000D+04  0.2263627398D-02
      0.1017200000D+04  0.1737666915D-01
      0.2315700000D+03  0.8858106628D-01
      0.6554700000D+02  0.3349169890D+00
      0.7533900000D+01  0.7492273802D+00
 S   3 1.00       0.000000000000
      0.2125300000D+02  0.4890586855D+00
      0.7533900000D+01  0.1348498864D+00
      0.2803100000D+01  0.5111822158D+00
 S   3 1.00       0.000000000000
      0.5215100000D+00  0.5066722729D+00
      0.1595700000D+00  0.1617441668D+00
      0.4882500000D-01  0.5006817482D+00
 P   4 1.00       0.000000000000
      0.1873400000D+02  0.1856071740D-01
      0.4136200000D+01  0.1165215712D+00
      0.1200400000D+01  0.3803858461D+00
      0.3834600000D+00  0.6424267075D+00
 P   2 1.00       0.000000000000
      0.1212900000D+00  0.9259484457D+00
      0.3836500000D-01  0.1052305709D+00
 D   2 1.00       0.000000000000
      0.4169000000D+00  0.3437908159D+00
      0.1085609000D+00  0.7890567836D+00
 ****
      6 0
 S   5 1.00       0.000000000000
      0.6779900000D+04  0.2263627398D-02
      0.1017200000D+04  0.1737666915D-01
      0.2315700000D+03  0.8858106628D-01
      0.6554700000D+02  0.3349169890D+00
      0.7533900000D+01  0.7492273802D+00
 S   3 1.00       0.000000000000
      0.2125300000D+02  0.4890586855D+00
      0.7533900000D+01  0.1348498864D+00
      0.2803100000D+01  0.5111822158D+00
 S   3 1.00       0.000000000000
      0.5215100000D+00  0.5066722729D+00
      0.1595700000D+00  0.1617441668D+00
      0.4882500000D-01  0.5006817482D+00
 P   4 1.00       0.000000000000
      0.1873400000D+02  0.1856071740D-01
      0.4136200000D+01  0.1165215712D+00
      0.1200400000D+01  0.3803858461D+00
      0.3834600000D+00  0.6424267075D+00
 P   2 1.00       0.000000000000
      0.1212900000D+00  0.9259484457D+00
      0.3836500000D-01  0.1052305709D+00
 D   2 1.00       0.000000000000
      0.4169000000D+00  0.3437908159D+00
      0.1085609000D+00  0.7890567836D+00
 ****
      7 0
 S   5 1.00       0.000000000000
      0.6779900000D+04  0.2263627398D-02
      0.1017200000D+04  0.1737666915D-01
      0.2315700000D+03  0.8858106628D-01
      0.6554700000D+02  0.3349169890D+00
      0.7533900000D+01  0.7492273802D+00
 S   3 1.00       0.000000000000
      0.2125300000D+02  0.4890586855D+00
      0.7533900000D+01  0.1348498864D+00
      0.2803100000D+01  0.5111822158D+00
 S   3 1.00       0.000000000000
      0.5215100000D+00  0.5066722729D+00
      0.1595700000D+00  0.1617441668D+00
      0.4882500000D-01  0.5006817482D+00
 P   4 1.00       0.000000000000
      0.1873400000D+02  0.1856071740D-01
      0.4136200000D+01  0.1165215712D+00
      0.1200400000D+01  0.3803858461D+00
      0.3834600000D+00  0.6424267075D+00
 P   2 1.00       0.000000000000
      0.1212900000D+00  0.9259484457D+00
      0.3836500000D-01  0.1052305709D+00
 D   2 1.00       0.000000000000
      0.4169000000D+00  0.3437908159D+00
      0.1085609000D+00  0.7890567836D+00
 ****
      8 0
 S   5 1.00       0.000000000000
      0.6779900000D+04  0.2263627398D-02
      0.1017200000D+04  0.1737666915D-01
      0.2315700000D+03  0.8858106628D-01
      0.6554700000D+02  0.3349169890D+00
      0.7533900000D+01  0.7492273802D+00
 S   3 1.00       0.000000000000
      0.2125300000D+02  0.4890586855D+00
      0.7533900000D+01  0.1348498864D+00
      0.2803100000D+01  0.5111822158D+00
 S   3 1.00       0.000000000000
      0.5215100000D+00  0.5066722729D+00
      0.1595700000D+00  0.1617441668D+00
      0.4882500000D-01  0.5006817482D+00
 P   4 1.00       0.000000000000
      0.1873400000D+02  0.1856071740D-01
      0.4136200000D+01  0.1165215712D+00
      0.1200400000D+01  0.3803858461D+00
      0.3834600000D+00  0.6424267075D+00
 P   2 1.00       0.000000000000
      0.1212900000D+00  0.9259484457D+00
      0.3836500000D-01  0.1052305709D+00
 D   2 1.00       0.000000000000
      0.4169000000D+00  0.3437908159D+00
      0.1085609000D+00  0.7890567836D+00
 ****
      9 0
 S   5 1.00       0.000000000000
      0.6779900000D+04  0.2263627398D-02
      0.1017200000D+04  0.1737666915D-01
      0.2315700000D+03  0.8858106628D-01
      0.6554700000D+02  0.3349169890D+00
      0.7533900000D+01  0.7492273802D+00
 S   3 1.00       0.000000000000
      0.2125300000D+02  0.4890586855D+00
      0.7533900000D+01  0.1348498864D+00
      0.2803100000D+01  0.5111822158D+00
 S   3 1.00       0.000000000000
      0.5215100000D+00  0.5066722729D+00
      0.1595700000D+00  0.1617441668D+00
      0.4882500000D-01  0.5006817482D+00
 P   4 1.00       0.000000000000
      0.1873400000D+02  0.1856071740D-01
      0.4136200000D+01  0.1165215712D+00
      0.1200400000D+01  0.3803858461D+00
      0.3834600000D+00  0.6424267075D+00
 P   2 1.00       0.000000000000
      0.1212900000D+00  0.9259484457D+00
      0.3836500000D-01  0.1052305709D+00
 D   2 1.00       0.000000000000
      0.4169000000D+00  0.3437908159D+00
      0.1085609000D+00  0.7890567836D+00
 ****
     10 0
 S   5 1.00       0.000000000000
      0.6779900000D+04  0.2263627398D-02
      0.1017200000D+04  0.1737666915D-01
      0.2315700000D+03  0.8858106628D-01
      0.6554700000D+02  0.3349169890D+00
      0.7533900000D+01  0.7492273802D+00
 S   3 1.00       0.000000000000
      0.2125300000D+02  0.4890586855D+00
      0.7533900000D+01  0.1348498864D+00
      0.2803100000D+01  0.5111822158D+00
 S   3 1.00       0.000000000000
      0.5215100000D+00  0.5066722729D+00
      0.1595700000D+00  0.1617441668D+00
      0.4882500000D-01  0.5006817482D+00
 P   4 1.00       0.000000000000
      0.1873400000D+02  0.1856071740D-01
      0.4136200000D+01  0.1165215712D+00
      0.1200400000D+01  0.3803858461D+00
      0.3834600000D+00  0.6424267075D+00
 P   2 1.00       0.000000000000
      0.1212900000D+00  0.9259484457D+00
      0.3836500000D-01  0.1052305709D+00
 D   2 1.00       0.000000000000
      0.4169000000D+00  0.3437908159D+00
      0.1085609000D+00  0.7890567836D+00
 ****
     11 0
 S   5 1.00       0.000000000000
      0.6779900000D+04  0.2263627398D-02
      0.1017200000D+04  0.1737666915D-01
      0.2315700000D+03  0.8858106628D-01
      0.6554700000D+02  0.3349169890D+00
      0.7533900000D+01  0.7492273802D+00
 S   3 1.00       0.000000000000
      0.2125300000D+02  0.4890586855D+00
      0.7533900000D+01  0.1348498864D+00
      0.2803100000D+01  0.5111822158D+00
 S   3 1.00       0.000000000000
      0.5215100000D+00  0.5066722729D+00
      0.1595700000D+00  0.1617441668D+00
      0.4882500000D-01  0.5006817482D+00
 P   4 1.00       0.000000000000
      0.1873400000D+02  0.1856071740D-01
      0.4136200000D+01  0.1165215712D+00
      0.1200400000D+01  0.3803858461D+00
      0.3834600000D+00  0.6424267075D+00
 P   2 1.00       0.000000000000
      0.1212900000D+00  0.9259484457D+00
      0.3836500000D-01  0.1052305709D+00
 D   2 1.00       0.000000000000
      0.4169000000D+00  0.3437908159D+00
      0.1085609000D+00  0.7890567836D+00
 ****
     12 0
 S   5 1.00       0.000000000000
      0.6779900000D+04  0.2263627398D-02
      0.1017200000D+04  0.1737666915D-01
      0.2315700000D+03  0.8858106628D-01
      0.6554700000D+02  0.3349169890D+00
      0.7533900000D+01  0.7492273802D+00
 S   3 1.00       0.000000000000
      0.2125300000D+02  0.4890586855D+00
      0.7533900000D+01  0.1348498864D+00
      0.2803100000D+01  0.5111822158D+00
 S   3 1.00       0.000000000000
      0.5215100000D+00  0.5066722729D+00
      0.1595700000D+00  0.1617441668D+00
      0.4882500000D-01  0.5006817482D+00
 P   4 1.00       0.000000000000
      0.1873400000D+02  0.1856071740D-01
      0.4136200000D+01  0.1165215712D+00
      0.1200400000D+01  0.3803858461D+00
      0.3834600000D+00  0.6424267075D+00
 P   2 1.00       0.000000000000
      0.1212900000D+00  0.9259484457D+00
      0.3836500000D-01  0.1052305709D+00
 D   2 1.00       0.000000000000
      0.4169000000D+00  0.3437908159D+00
      0.1085609000D+00  0.7890567836D+00
 ****
     13 0
 S   5 1.00       0.000000000000
      0.6779900000D+04  0.2263627398D-02
      0.1017200000D+04  0.1737666915D-01
      0.2315700000D+03  0.8858106628D-01
      0.6554700000D+02  0.3349169890D+00
      0.7533900000D+01  0.7492273802D+00
 S   3 1.00       0.000000000000
      0.2125300000D+02  0.4890586855D+00
      0.7533900000D+01  0.1348498864D+00
      0.2803100000D+01  0.5111822158D+00
 S   3 1.00       0.000000000000
      0.5215100000D+00  0.5066722729D+00
      0.1595700000D+00  0.1617441668D+00
      0.4882500000D-01  0.5006817482D+00
 P   4 1.00       0.000000000000
      0.1873400000D+02  0.1856071740D-01
      0.4136200000D+01  0.1165215712D+00
      0.1200400000D+01  0.3803858461D+00
      0.3834600000D+00  0.6424267075D+00
 P   2 1.00       0.000000000000
      0.1212900000D+00  0.9259484457D+00
      0.3836500000D-01  0.1052305709D+00
 D   2 1.00       0.000000000000
      0.4169000000D+00  0.3437908159D+00
      0.1085609000D+00  0.7890567836D+00
 ****
     14 0
 S   5 1.00       0.000000000000
      0.6779900000D+04  0.2263627398D-02
      0.1017200000D+04  0.1737666915D-01
      0.2315700000D+03  0.8858106628D-01
      0.6554700000D+02  0.3349169890D+00
      0.7533900000D+01  0.7492273802D+00
 S   3 1.00       0.000000000000
      0.2125300000D+02  0.4890586855D+00
      0.7533900000D+01  0.1348498864D+00
      0.2803100000D+01  0.5111822158D+00
 S   3 1.00       0.000000000000
      0.5215100000D+00  0.5066722729D+00
      0.1595700000D+00  0.1617441668D+00
      0.4882500000D-01  0.5006817482D+00
 P   4 1.00       0.000000000000
      0.1873400000D+02  0.1856071740D-01
      0.4136200000D+01  0.1165215712D+00
      0.1200400000D+01  0.3803858461D+00
      0.3834600000D+00  0.6424267075D+00
 P   2 1.00       0.000000000000
      0.1212900000D+00  0.9259484457D+00
      0.3836500000D-01  0.1052305709D+00
 D   2 1.00       0.000000000000
      0.4169000000D+00  0.3437908159D+00
      0.1085609000D+00  0.7890567836D+00
 ****
     15 0
 S   5 1.00       0.000000000000
      0.6779900000D+04  0.2263627398D-02
      0.1017200000D+04  0.1737666915D-01
      0.2315700000D+03  0.8858106628D-01
      0.6554700000D+02  0.3349169890D+00
      0.7533900000D+01  0.7492273802D+00
 S   3 1.00       0.000000000000
      0.2125300000D+02  0.4890586855D+00
      0.7533900000D+01  0.1348498864D+00
      0.2803100000D+01  0.5111822158D+00
 S   3 1.00       0.000000000000
      0.5215100000D+00  0.5066722729D+00
      0.1595700000D+00  0.1617441668D+00
      0.4882500000D-01  0.5006817482D+00
 P   4 1.00       0.000000000000
      0.1873400000D+02  0.1856071740D-01
      0.4136200000D+01  0.1165215712D+00
      0.1200400000D+01  0.3803858461D+00
      0.3834600000D+00  0.6424267075D+00
 P   2 1.00       0.000000000000
      0.1212900000D+00  0.9259484457D+00
      0.3836500000D-01  0.1052305709D+00
 D   2 1.00       0.000000000000
      0.4169000000D+00  0.3437908159D+00
      0.1085609000D+00  0.7890567836D+00
 ****
     16 0
 S   5 1.00       0.000000000000
      0.6779900000D+04  0.2263627398D-02
      0.1017200000D+04  0.1737666915D-01
      0.2315700000D+03  0.8858106628D-01
      0.6554700000D+02  0.3349169890D+00
      0.7533900000D+01  0.7492273802D+00
 S   3 1.00       0.000000000000
      0.2125300000D+02  0.4890586855D+00
      0.7533900000D+01  0.1348498864D+00
      0.2803100000D+01  0.5111822158D+00
 S   3 1.00       0.000000000000
      0.5215100000D+00  0.5066722729D+00
      0.1595700000D+00  0.1617441668D+00
      0.4882500000D-01  0.5006817482D+00
 P   4 1.00       0.000000000000
      0.1873400000D+02  0.1856071740D-01
      0.4136200000D+01  0.1165215712D+00
      0.1200400000D+01  0.3803858461D+00
      0.3834600000D+00  0.6424267075D+00
 P   2 1.00       0.000000000000
      0.1212900000D+00  0.9259484457D+00
      0.3836500000D-01  0.1052305709D+00
 D   2 1.00       0.000000000000
      0.4169000000D+00  0.3437908159D+00
      0.1085609000D+00  0.7890567836D+00
 ****
     17 0
 S   5 1.00       0.000000000000
      0.6779900000D+04  0.2263627398D-02
      0.1017200000D+04  0.1737666915D-01
      0.2315700000D+03  0.8858106628D-01
      0.6554700000D+02  0.3349169890D+00
      0.7533900000D+01  0.7492273802D+00
 S   3 1.00       0.000000000000
      0.2125300000D+02  0.4890586855D+00
      0.7533900000D+01  0.1348498864D+00
      0.2803100000D+01  0.5111822158D+00
 S   3 1.00       0.000000000000
      0.5215100000D+00  0.5066722729D+00
      0.1595700000D+00  0.1617441668D+00
      0.4882500000D-01  0.5006817482D+00
 P   4 1.00       0.000000000000
      0.1873400000D+02  0.1856071740D-01
      0.4136200000D+01  0.1165215712D+00
      0.1200400000D+01  0.3803858461D+00
      0.3834600000D+00  0.6424267075D+00
 P   2 1.00       0.000000000000
      0.1212900000D+00  0.9259484457D+00
      0.3836500000D-01  0.1052305709D+00
 D   2 1.00       0.000000000000
      0.4169000000D+00  0.3437908159D+00
      0.1085609000D+00  0.7890567836D+00
 ****
     18 0
 S   5 1.00       0.000000000000
      0.6779900000D+04  0.2263627398D-02
      0.1017200000D+04  0.1737666915D-01
      0.2315700000D+03  0.8858106628D-01
      0.6554700000D+02  0.3349169890D+00
      0.7533900000D+01  0.7492273802D+00
 S   3 1.00       0.000000000000
      0.2125300000D+02  0.4890586855D+00
      0.7533900000D+01  0.1348498864D+00
      0.2803100000D+01  0.5111822158D+00
 S   3 1.00       0.000000000000
      0.5215100000D+00  0.5066722729D+00
      0.1595700000D+00  0.1617441668D+00
      0.4882500000D-01  0.5006817482D+00
 P   4 1.00       0.000000000000
      0.1873400000D+02  0.1856071740D-01
      0.4136200000D+01  0.1165215712D+00
      0.1200400000D+01  0.3803858461D+00
      0.3834600000D+00  0.6424267075D+00
 P   2 1.00       0.000000000000
      0.1212900000D+00  0.9259484457D+00
      0.3836500000D-01  0.1052305709D+00
 D   2 1.00       0.000000000000
      0.4169000000D+00  0.3437908159D+00
      0.1085609000D+00  0.7890567836D+00
 ****
     19 0
 S   3 1.00       0.000000000000
      0.1873584000D+02  0.2909665547D-01
      0.2825712000D+01  0.2092649935D+00
      0.6401370000D+00  0.8360439004D+00
 S   2 1.00       0.000000000000
      0.1756080000D+00  0.8811468938D+00
      0.4817400000D-01  0.1525169838D+00
 P   2 1.00       0.000000000000
      0.6058390000D+00  0.1146434882D+00
      0.1251770000D+00  0.9385230490D+00
 ****
     20 0
 S   5 1.00       0.000000000000
      0.6779900000D+04  0.2263627398D-02
      0.1017200000D+04  0.1737666915D-01
      0.2315700000D+03  0.8858106628D-01
      0.6554700000D+02  0.3349169890D+00
      0.7533900000D+01  0.7492273802D+00
 S   3 1.00       0.000000000000
      0.2125300000D+02  0.4890586855D+00
      0.7533900000D+01  0.1348498864D+00
      0.2803100000D+01  0.5111822158D+00
 S   3 1.00       0.000000000000
      0.5215100000D+00  0.5066722729D+00
      0.1595700000D+00  0.1617441668D+00
      0.4882500000D-01  0.5006817482D+00
 P   4 1.00       0.000000000000
      0.1873400000D+02  0.1856071740D-01
      0.4136200000D+01  0.1165215712D+00
      0.1200400000D+01  0.3803858461D+00
      0.3834600000D+00  0.6424267075D+00
 P   2 1.00       0.000000000000
      0.1212900000D+00  0.9259484457D+00
      0.3836500000D-01  0.1052305709D+00
 D   2 1.00       0.000000000000
      0.4169000000D+00  0.3437908159D+00
      0.1085609000D+00  0.7890567836D+00
 ****
     21 0
 S   5 1.00       0.000000000000
      0.6779900000D+04  0.2263627398D-02
      0.1017200000D+04  0.1737666915D-01
      0.2315700000D+03  0.8858106628D-01
      0.6554700000D+02  0.3349169890D+00
      0.7533900000D+01  0.7492273802D+00
 S   3 1.00       0.000000000000
      0.2125300000D+02  0.4890586855D+00
      0.7533900000D+01  0.1348498864D+00
      0.2803100000D+01  0.5111822158D+00
 S   3 1.00       0.000000000000
      0.5215100000D+00  0.5066722729D+00
      0.1595700000D+00  0.1617441668D+00
      0.4882500000D-01  0.5006817482D+00
 P   4 1.00       0.000000000000
      0.1873400000D+02  0.1856071740D-01
      0.4136200000D+01  0.1165215712D+00
      0.1200400000D+01  0.3803858461D+00
      0.3834600000D+00  0.6424267075D+00
 P   2 1.00       0.000000000000
      0.1212900000D+00  0.9259484457D+00
      0.3836500000D-01  0.1052305709D+00
 D   2 1.00       0.000000000000
      0.4169000000D+00  0.3437908159D+00
      0.1085609000D+00  0.7890567836D+00
 ****
     22 0
 S   5 1.00       0.000000000000
      0.1484600000D+05  0.2782168904D-02
      0.2227400000D+04  0.2151282716D-01
      0.5071400000D+03  0.1096409661D+00
      0.1436400000D+03  0.4139945700D+00
      0.4674000000D+02  0.5597253609D+00
 S   3 1.00       0.000000000000
      0.4674000000D+02  0.5208545086D-01
      0.1676600000D+02  0.6261137213D+00
      0.6369900000D+01  0.3716024143D+00
 S   3 1.00       0.000000000000
      0.1316400000D+01  0.2980288756D-01
      0.3900900000D+00  0.9392850723D+00
      0.1155960000D+00  0.4857922684D-01
 P   4 1.00       0.000000000000
      0.4390700000D+02  0.2080895110D-01
      0.9929800000D+01  0.1303799380D+00
      0.2931300000D+01  0.3992213162D+00
      0.9143300000D+00  0.6181676713D+00
 P   2 1.00       0.000000000000
      0.2678300000D+00  0.4455661033D+00
      0.7845400000D-01  0.6539909016D+00
 D   2 1.00       0.000000000000
      0.5100700000D+01  0.4106331944D-02
      0.1246380000D+01  0.9981576009D+00
 ****
     23 0
 S   5 1.00       0.000000000000
      0.1484600000D+05  0.2782168904D-02
      0.2227400000D+04  0.2151282716D-01
      0.5071400000D+03  0.1096409661D+00
      0.1436400000D+03  0.4139945700D+00
      0.4674000000D+02  0.5597253609D+00
 S   3 1.00       0.000000000000
      0.4674000000D+02  0.5208545086D-01
      0.1676600000D+02  0.6261137213D+00
      0.6369900000D+01  0.3716024143D+00
 S   3 1.00       0.000000000000
      0.1316400000D+01  0.2980288756D-01
      0.3900900000D+00  0.9392850723D+00
      0.1155960000D+00  0.4857922684D-01
 P   4 1.00       0.000000000000
      0.4390700000D+02  0.2080895110D-01
      0.9929800000D+01  0.1303799380D+00
      0.2931300000D+01  0.3992213162D+00
      0.9143300000D+00  0.6181676713D+00
 P   2 1.00       0.000000000000
      0.2678300000D+00  0.4455661033D+00
      0.7845400000D-01  0.6539909016D+00
 D   2 1.00       0.000000000000
      0.5100700000D+01  0.4106331944D-02
      0.1246380000D+01  0.9981576009D+00
 ****
     24 0
 S   3 1.00       0.000000000000
      0.1873584000D+02  0.2909665547D-01
      0.2825712000D+01  0.2092649935D+00
      0.6401370000D+00  0.8360439004D+00
 S   2 1.00       0.000000000000
      0.1756080000D+00  0.8811468938D+00
      0.4817400000D-01  0.1525169838D+00
 P   2 1.00       0.000000000000
      0.6058390000D+00  0.1146434882D+00
      0.1251770000D+00  0.9385230490D+00
 ****
     25 0
 S   5 1.00       0.000000000000
      0.6779900000D+04  0.2263627398D-02
      0.1017200000D+04  0.1737666915D-01
      0.2315700000D+03  0.8858106628D-01
      0.6554700000D+02  0.3349169890D+00
      0.7533900000D+01  0.7492273802D+00
 S   3 1.00       0.000000000000
      0.2125300000D+02  0.4890586855D+00
      0.7533900000D+01  0.1348498864D+00
      0.2803100000D+01  0.5111822158D+00
 S   3 1.00       0.000000000000
      0.5215100000D+00  0.5066722729D+00
      0.1595700000D+00  0.1617441668D+00
      0.4882500000D-01  0.5006817482D+00
 P   4 1.00       0.000000000000
      0.1873400000D+02  0.1856071740D-01
      0.4136200000D+01  0.1165215712D+00
      0.1200400000D+01  0.3803858461D+00
      0.3834600000D+00  0.6424267075D+00
 P   2 1.00       0.000000000000
      0.1212900000D+00  0.9259484457D+00
      0.3836500000D-01  0.1052305709D+00
 D   2 1.00       0.000000000000
      0.4169000000D+00  0.3437908159D+00
      0.1085609000D+00  0.7890567836D+00
 ****
     26 0
 S   3 1.00       0.000000000000
      0.1873584000D+02  0.2909665547D-01
      0.2825712000D+01  0.2092649935D+00
      0.6401370000D+00  0.8360439004D+00
 S   2 1.00       0.000000000000
      0.1756080000D+00  0.8811468938D+00
      0.4817400000D-01  0.1525169838D+00
 P   2 1.00       0.000000000000
      0.6058390000D+00  0.1146434882D+00
      0.1251770000D+00  0.9385230490D+00
 ****
     27 0
 S   3 1.00       0.000000000000
      0.1873584000D+02  0.2909665547D-01
      0.2825712000D+01  0.2092649935D+00
      0.6401370000D+00  0.8360439004D+00
 S   2 1.00       0.000000000000
      0.1756080000D+00  0.8811468938D+00
      0.4817400000D-01  0.1525169838D+00
 P   2 1.00       0.000000000000
      0.6058390000D+00  0.1146434882D+00
      0.1251770000D+00  0.9385230490D+00
 ****
     28 0
 S   5 1.00       0.000000000000
      0.6779900000D+04  0.2263627398D-02
      0.1017200000D+04  0.1737666915D-01
      0.2315700000D+03  0.8858106628D-01
      0.6554700000D+02  0.3349169890D+00
      0.7533900000D+01  0.7492273802D+00
 S   3 1.00       0.000000000000
      0.2125300000D+02  0.4890586855D+00
      0.7533900000D+01  0.1348498864D+00
      0.2803100000D+01  0.5111822158D+00
 S   3 1.00       0.000000000000
      0.5215100000D+00  0.5066722729D+00
      0.1595700000D+00  0.1617441668D+00
      0.4882500000D-01  0.5006817482D+00
 P   4 1.00       0.000000000000
      0.1873400000D+02  0.1856071740D-01
      0.4136200000D+01  0.1165215712D+00
      0.1200400000D+01  0.3803858461D+00
      0.3834600000D+00  0.6424267075D+00
 P   2 1.00       0.000000000000
      0.1212900000D+00  0.9259484457D+00
      0.3836500000D-01  0.1052305709D+00
 D   2 1.00       0.000000000000
      0.4169000000D+00  0.3437908159D+00
      0.1085609000D+00  0.7890567836D+00
 ****
     29 0
 S   3 1.00       0.000000000000
      0.1873584000D+02  0.2909665547D-01
      0.2825712000D+01  0.2092649935D+00
      0.6401370000D+00  0.8360439004D+00
 S   2 1.00       0.000000000000
      0.1756080000D+00  0.8811468938D+00
      0.4817400000D-01  0.1525169838D+00
 P   2 1.00       0.000000000000
      0.6058390000D+00  0.1146434882D+00
      0.1251770000D+00  0.9385230490D+00
 ****
     30 0
 S   3 1.00       0.000000000000
      0.1873584000D+02  0.2909665547D-01
      0.2825712000D+01  0.2092649935D+00
      0.6401370000D+00  0.8360439004D+00
 S   2 1.00       0.000000000000
      0.1756080000D+00  0.8811468938D+00
      0.4817400000D-01  0.1525169838D+00
 P   2 1.00       0.000000000000
      0.6058390000D+00  0.1146434882D+00
      0.1251770000D+00  0.9385230490D+00
 ****
     31 0
 S   5 1.00       0.000000000000
      0.6779900000D+04  0.2263627398D-02
      0.1017200000D+04  0.1737666915D-01
      0.2315700000D+03  0.8858106628D-01
      0.6554700000D+02  0.3349169890D+00
      0.7533900000D+01  0.7492273802D+00
 S   3 1.00       0.000000000000
      0.2125300000D+02  0.4890586855D+00
      0.7533900000D+01  0.1348498864D+00
      0.2803100000D+01  0.5111822158D+00
 S   3 1.00       0.000000000000
      0.5215100000D+00  0.5066722729D+00
      0.1595700000D+00  0.1617441668D+00
      0.4882500000D-01  0.5006817482D+00
 P   4 1.00       0.000000000000
      0.1873400000D+02  0.1856071740D-01
      0.4136200000D+01  0.1165215712D+00
      0.1200400000D+01  0.3803858461D+00
      0.3834600000D+00  0.6424267075D+00
 P   2 1.00       0.000000000000
      0.1212900000D+00  0.9259484457D+00
      0.3836500000D-01  0.1052305709D+00
 D   2 1.00       0.000000000000
      0.4169000000D+00  0.3437908159D+00
      0.1085609000D+00  0.7890567836D+00
 ****
     32 0
 S   5 1.00       0.000000000000
      0.6779900000D+04  0.2263627398D-02
      0.1017200000D+04  0.1737666915D-01
      0.2315700000D+03  0.8858106628D-01
      0.6554700000D+02  0.3349169890D+00
      0.7533900000D+01  0.7492273802D+00
 S   3 1.00       0.000000000000
      0.2125300000D+02  0.4890586855D+00
      0.7533900000D+01  0.1348498864D+00
      0.2803100000D+01  0.5111822158D+00
 S   3 1.00       0.000000000000
      0.5215100000D+00  0.5066722729D+00
      0.1595700000D+00  0.1617441668D+00
      0.4882500000D-01  0.5006817482D+00
 P   4 1.00       0.000000000000
      0.1873400000D+02  0.1856071740D-01
      0.4136200000D+01  0.1165215712D+00
      0.1200400000D+01  0.3803858461D+00
      0.3834600000D+00  0.6424267075D+00
 P   2 1.00       0.000000000000
      0.1212900000D+00  0.9259484457D+00
      0.3836500000D-01  0.1052305709D+00
 D   2 1.00       0.000000000000
      0.4169000000D+00  0.3437908159D+00
      0.1085609000D+00  0.7890567836D+00
 ****
     33 0
 S   5 1.00       0.000000000000
      0.6779900000D+04  0.2263627398D-02
      0.1017200000D+04  0.1737666915D-01
      0.2315700000D+03  0.8858106628D-01
      0.6554700000D+02  0.3349169890D+00
      0.7533900000D+01  0.7492273802D+00
 S   3 1.00       0.000000000000
      0.2125300000D+02  0.4890586855D+00
      0.7533900000D+01  0.1348498864D+00
      0.2803100000D+01  0.5111822158D+00
 S   3 1.00       0.000000000000
      0.5215100000D+00  0.5066722729D+00
      0.1595700000D+00  0.1617441668D+00
      0.4882500000D-01  0.5006817482D+00
 P   4 1.00       0.000000000000
      0.1873400000D+02  0.1856071740D-01
      0.4136200000D+01  0.1165215712D+00
      0.1200400000D+01  0.3803858461D+00
      0.3834600000D+00  0.6424267075D+00
 P   2 1.00       0.000000000000
      0.1212900000D+00  0.9259484457D+00
      0.3836500000D-01  0.1052305709D+00
 D   2 1.00       0.000000000000
      0.4169000000D+00  0.3437908159D+00
      0.1085609000D+00  0.7890567836D+00
 ****
     34 0
 S   5 1.00       0.000000000000
      0.6779900000D+04  0.2263627398D-02
      0.1017200000D+04  0.1737666915D-01
      0.2315700000D+03  0.8858106628D-01
      0.6554700000D+02  0.3349169890D+00
      0.7533900000D+01  0.7492273802D+00
 S   3 1.00       0.000000000000
      0.2125300000D+02  0.4890586855D+00
      0.7533900000D+01  0.1348498864D+00
      0.2803100000D+01  0.5111822158D+00
 S   3 1.00       0.000000000000
      0.5215100000D+00  0.5066722729D+00
      0.1595700000D+00  0.1617441668D+00
      0.4882500000D-01  0.5006817482D+00
 P   4 1.00       0.000000000000
      0.1873400000D+02  0.1856071740D-01
      0.4136200000D+01  0.1165215712D+00
      0.1200400000D+01  0.3803858461D+00
      0.3834600000D+00  0.6424267075D+00
 P   2 1.00       0.000000000000
      0.1212900000D+00  0.9259484457D+00
      0.3836500000D-01  0.1052305709D+00
 D   2 1.00       0.000000000000
      0.4169000000D+00  0.3437908159D+00
      0.1085609000D+00  0.7890567836D+00
 ****
     35 0
 S   5 1.00       0.000000000000
      0.6779900000D+04  0.2263627398D-02
      0.1017200000D+04  0.1737666915D-01
      0.2315700000D+03  0.8858106628D-01
      0.6554700000D+02  0.3349169890D+00
      0.7533900000D+01  0.7492273802D+00
 S   3 1.00       0.000000000000
      0.2125300000D+02  0.4890586855D+00
      0.7533900000D+01  0.1348498864D+00
      0.2803100000D+01  0.5111822158D+00
 S   3 1.00       0.000000000000
      0.5215100000D+00  0.5066722729D+00
      0.1595700000D+00  0.1617441668D+00
      0.4882500000D-01  0.5006817482D+00
 P   4 1.00       0.000000000000
      0.1873400000D+02  0.1856071740D-01
      0.4136200000D+01  0.1165215712D+00
      0.1200400000D+01  0.3803858461D+00
      0.3834600000D+00  0.6424267075D+00
 P   2 1.00       0.000000000000
      0.1212900000D+00  0.9259484457D+00
      0.3836500000D-01  0.1052305709D+00
 D   2 1.00       0.000000000000
      0.4169000000D+00  0.3437908159D+00
      0.1085609000D+00  0.7890567836D+00
 ****
     36 0
 S   5 1.00       0.000000000000
      0.6779900000D+04  0.2263627398D-02
      0.1017200000D+04  0.1737666915D-01
      0.2315700000D+03  0.8858106628D-01
      0.6554700000D+02  0.3349169890D+00
      0.7533900000D+01  0.7492273802D+00
 S   3 1.00       0.000000000000
      0.2125300000D+02  0.4890586855D+00
      0.7533900000D+01  0.1348498864D+00
      0.2803100000D+01  0.5111822158D+00
 S   3 1.00       0.000000000000
      0.5215100000D+00  0.5066722729D+00
      0.1595700000D+00  0.1617441668D+00
      0.4882500000D-01  0.5006817482D+00
 P   4 1.00       0.000000000000
      0.1873400000D+02  0.1856071740D-01
      0.4136200000D+01  0.1165215712D+00
      0.1200400000D+01  0.3803858461D+00
      0.3834600000D+00  0.6424267075D+00
 P   2 1.00       0.000000000000
      0.1212900000D+00  0.9259484457D+00
      0.3836500000D-01  0.1052305709D+00
 D   2 1.00       0.000000000000
      0.4169000000D+00  0.3437908159D+00
      0.1085609000D+00  0.7890567836D+00
 ****
     37 0
 S   5 1.00       0.000000000000
      0.6779900000D+04  0.2263627398D-02
      0.1017200000D+04  0.1737666915D-01
      0.2315700000D+03  0.8858106628D-01
      0.6554700000D+02  0.3349169890D+00
      0.7533900000D+01  0.7492273802D+00
 S   3 1.00       0.000000000000
      0.2125300000D+02  0.4890586855D+00
      0.7533900000D+01  0.1348498864D+00
      0.2803100000D+01  0.5111822158D+00
 S   3 1.00       0.000000000000
      0.5215100000D+00  0.5066722729D+00
      0.1595700000D+00  0.1617441668D+00
      0.4882500000D-01  0.5006817482D+00
 P   4 1.00       0.000000000000
      0.1873400000D+02  0.1856071740D-01
      0.4136200000D+01  0.1165215712D+00
      0.1200400000D+01  0.3803858461D+00
      0.3834600000D+00  0.6424267075D+00
 P   2 1.00       0.000000000000
      0.1212900000D+00  0.9259484457D+00
      0.3836500000D-01  0.1052305709D+00
 D   2 1.00       0.000000000000
      0.4169000000D+00  0.3437908159D+00
      0.1085609000D+00  0.7890567836D+00
 ****
     38 0
 S   5 1.00       0.000000000000
      0.9155600000D+04  0.2287778170D-02
      0.1373600000D+04  0.1760594505D-01
      0.3127300000D+03  0.8972069171D-01
      0.8854700000D+02  0.3390553560D+00
      0.1024600000D+02  0.7445225914D+00
 S   3 1.00       0.000000000000
      0.2875600000D+02  0.4934715752D+00
      0.1024600000D+02  0.1430602130D+00
      0.3844300000D+01  0.4962784191D+00
 S   3 1.00       0.000000000000
      0.7465000000D+00  0.9882465417D+00
      0.2247500000D+00  0.8025164653D-02
      0.6766600000D-01  0.1317210570D-01
 P   4 1.00       0.000000000000
      0.2666700000D+02  0.2576511807D-01
      0.5955700000D+01  0.1628519617D+00
      0.1744000000D+01  0.3552517319D+00
      0.5562900000D+00  0.6382398016D+00
 P   2 1.00       0.000000000000
      0.1731500000D+00  0.9348692098D+00
      0.5389400000D-01  0.9385045449D-01
 D   2 1.00       0.000000000000
      0.6671040000D+00  0.2927527595D+00
      0.1480970000D+00  0.8455388525D+00
 ****
     39 0
 S   3 1.00       0.000000000000
      0.1873584000D+02  0.2909665547D-01
      0.2825712000D+01  0.2092649935D+00
      0.6401370000D+00  0.8360439004D+00
 S   2 1.00       0.000000000000
      0.1756080000D+00  0.8811468938D+00
      0.4817400000D-01  0.1525169838D+00
 P   2 1.00       0.000000000000
      0.6058390000D+00  0.1146434882D+00
      0.1251770000D+00  0.9385230490D+00
 ****
     40 0
 S   5 1.00       0.000000000000
      0.1484600000D+05  0.2782168904D-02
      0.2227400000D+04  0.2151282716D-01
      0.5071400000D+03  0.1096409661D+00
      0.1436400000D+03  0.4139945700D+00
      0.4674000000D+02  0.5597253609D+00
 S   3 1.00       0.000000000000
      0.4674000000D+02  0.5208545086D-01
      0.1676600000D+02  0.6261137213D+00
      0.6369900000D+01  0.3716024143D+00
 S   3 1.00       0.000000000000
      0.1316400000D+01  0.2980288756D-01
      0.3900900000D+00  0.9392850723D+00
      0.1155960000D+00  0.4857922684D-01
 P   4 1.00       0.000000000000
      0.4390700000D+02  0.2080895110D-01
      0.9929800000D+01  0.1303799380D+00
      0.2931300000D+01  0.3992213162D+00
      0.9143300000D+00  0.6181676713D+00
 P   2 1.00       0.000000000000
      0.2678300000D+00  0.4455661033D+00
      0.7845400000D-01  0.6539909016D+00
 D   2 1.00       0.000000000000
      0.5100700000D+01  0.4106331944D-02
      0.1246380000D+01  0.9981576009D+00
 ****
     41 0
 S   5 1.00       0.000000000000
      0.1484600000D+05  0.2782168904D-02
      0.2227400000D+04  0.2151282716D-01
      0.5071400000D+03  0.1096409661D+00
      0.1436400000D+03  0.4139945700D+00
      0.4674000000D+02  0.5597253609D+00
 S   3 1.00       0.000000000000
      0.4674000000D+02  0.5208545086D-01
      0.1676600000D+02  0.6261137213D+00
      0.6369900000D+01  0.3716024143D+00
 S   3 1.00       0.000000000000
      0.1316400000D+01  0.2980288756D-01
      0.3900900000D+00  0.9392850723D+00
      0.1155960000D+00  0.4857922684D-01
 P   4 1.00       0.000000000000
      0.4390700000D+02  0.2080895110D-01
      0.9929800000D+01  0.1303799380D+00
      0.2931300000D+01  0.3992213162D+00
      0.9143300000D+00  0.6181676713D+00
 P   2 1.00       0.000000000000
      0.2678300000D+00  0.4455661033D+00
      0.7845400000D-01  0.6539909016D+00
 D   2 1.00       0.000000000000
      0.5100700000D+01  0.4106331944D-02
      0.1246380000D+01  0.9981576009D+00
 ****
     42 0
 S   5 1.00       0.000000000000
      0.1484600000D+05  0.2782168904D-02
      0.2227400000D+04  0.2151282716D-01
      0.5071400000D+03  0.1096409661D+00
      0.1436400000D+03  0.4139945700D+00
      0.4674000000D+02  0.5597253609D+00
 S   3 1.00       0.000000000000
      0.4674000000D+02  0.5208545086D-01
      0.1676600000D+02  0.6261137213D+00
      0.6369900000D+01  0.3716024143D+00
 S   3 1.00       0.000000000000
      0.1316400000D+01  0.2980288756D-01
      0.3900900000D+00  0.9392850723D+00
      0.1155960000D+00  0.4857922684D-01
 P   4 1.00       0.000000000000
      0.4390700000D+02  0.2080895110D-01
      0.9929800000D+01  0.1303799380D+00
      0.2931300000D+01  0.3992213162D+00
      0.9143300000D+00  0.6181676713D+00
 P   2 1.00       0.000000000000
      0.2678300000D+00  0.4455661033D+00
      0.7845400000D-01  0.6539909016D+00
 D   2 1.00       0.000000000000
      0.5100700000D+01  0.4106331944D-02
      0.1246380000D+01  0.9981576009D+00
 ****
     43 0
 S   5 1.00       0.000000000000
      0.1484600000D+05  0.2782168904D-02
      0.2227400000D+04  0.2151282716D-01
      0.5071400000D+03  0.1096409661D+00
      0.1436400000D+03  0.4139945700D+00
      0.4674000000D+02  0.5597253609D+00
 S   3 1.00       0.000000000000
      0.4674000000D+02  0.5208545086D-01
      0.1676600000D+02  0.6261137213D+00
      0.6369900000D+01  0.3716024143D+00
 S   3 1.00       0.000000000000
      0.1316400000D+01  0.2980288756D-01
      0.3900900000D+00  0.9392850723D+00
      0.1155960000D+00  0.4857922684D-01
 P   4 1.00       0.000000000000
      0.4390700000D+02  0.2080895110D-01
      0.9929800000D+01  0.1303799380D+00
      0.2931300000D+01  0.3992213162D+00
      0.9143300000D+00  0.6181676713D+00
 P   2 1.00       0.000000000000
      0.2678300000D+00  0.4455661033D+00
      0.7845400000D-01  0.6539909016D+00
 D   2 1.00       0.000000000000
      0.5100700000D+01  0.4106331944D-02
      0.1246380000D+01  0.9981576009D+00
 ****
     44 0
 S   5 1.00       0.000000000000
      0.1484600000D+05  0.2782168904D-02
      0.2227400000D+04  0.2151282716D-01
      0.5071400000D+03  0.1096409661D+00
      0.1436400000D+03  0.4139945700D+00
      0.4674000000D+02  0.5597253609D+00
 S   3 1.00       0.000000000000
      0.4674000000D+02  0.5208545086D-01
      0.1676600000D+02  0.6261137213D+00
      0.6369900000D+01  0.3716024143D+00
 S   3 1.00       0.000000000000
      0.1316400000D+01  0.2980288756D-01
      0.3900900000D+00  0.9392850723D+00
      0.1155960000D+00  0.4857922684D-01
 P   4 1.00       0.000000000000
      0.4390700000D+02  0.2080895110D-01
      0.9929800000D+01  0.1303799380D+00
      0.2931300000D+01  0.3992213162D+00
      0.9143300000D+00  0.6181676713D+00
 P   2 1.00       0.000000000000
      0.2678300000D+00  0.4455661033D+00
      0.7845400000D-01  0.6539909016D+00
 D   2 1.00       0.000000000000
      0.5100700000D+01  0.4106331944D-02
      0.1246380000D+01  0.9981576009D+00
 ****
     45 0
 S   5 1.00       0.000000000000
      0.1484600000D+05  0.2782168904D-02
      0.2227400000D+04  0.2151282716D-01
      0.5071400000D+03  0.1096409661D+00
      0.1436400000D+03  0.4139945700D+00
      0.4674000000D+02  0.5597253609D+00
 S   3 1.00       0.000000000000
      0.4674000000D+02  0.5208545086D-01
      0.1676600000D+02  0.6261137213D+00
      0.6369900000D+01  0.3716024143D+00
 S   3 1.00       0.000000000000
      0.1316400000D+01  0.2980288756D-01
      0.3900900000D+00  0.9392850723D+00
      0.1155960000D+00  0.4857922684D-01
 P   4 1.00       0.000000000000
      0.4390700000D+02  0.2080895110D-01
      0.9929800000D+01  0.1303799380D+00
      0.2931300000D+01  0.3992213162D+00
      0.9143300000D+00  0.6181676713D+00
 P   2 1.00       0.000000000000
      0.2678300000D+00  0.4455661033D+00
      0.7845400000D-01  0.6539909016D+00
 D   2 1.00       0.000000000000
      0.5100700000D+01  0.4106331944D-02
      0.1246380000D+01  0.9981576009D+00
 ****
     46 0
 S   3 1.00       0.000000000000
      0.1873584000D+02  0.2909665547D-01
      0.2825712000D+01  0.2092649935D+00
      0.6401370000D+00  0.8360439004D+00
 S   2 1.00       0.000000000000
      0.1756080000D+00  0.8811468938D+00
      0.4817400000D-01  0.1525169838D+00
 P   2 1.00       0.000000000000
      0.6058390000D+00  0.1146434882D+00
      0.1251770000D+00  0.9385230490D+00
 ****
     47 0
 S   3 1.00       0.000000000000
      0.1873584000D+02  0.2909665547D-01
      0.2825712000D+01  0.2092649935D+00
      0.6401370000D+00  0.8360439004D+00
 S   2 1.00       0.000000000000
      0.1756080000D+00  0.8811468938D+00
      0.4817400000D-01  0.1525169838D+00
 P   2 1.00       0.000000000000
      0.6058390000D+00  0.1146434882D+00
      0.1251770000D+00  0.9385230490D+00
 ****
     48 0
 S   3 1.00       0.000000000000
      0.1873584000D+02  0.2909665547D-01
      0.2825712000D+01  0.2092649935D+00
      0.6401370000D+00  0.8360439004D+00
 S   2 1.00       0.000000000000
      0.1756080000D+00  0.8811468938D+00
      0.4817400000D-01  0.1525169838D+00
 P   2 1.00       0.000000000000
      0.6058390000D+00  0.1146434882D+00
      0.1251770000D+00  0.9385230490D+00
 ****
     49 0
 S   3 1.00       0.000000000000
      0.1873584000D+02  0.2909665547D-01
      0.2825712000D+01  0.2092649935D+00
      0.6401370000D+00  0.8360439004D+00
 S   2 1.00       0.000000000000
      0.1756080000D+00  0.8811468938D+00
      0.4817400000D-01  0.1525169838D+00
 P   2 1.00       0.000000000000
      0.6058390000D+00  0.1146434882D+00
      0.1251770000D+00  0.9385230490D+00
 ****
     50 0
 S   5 1.00       0.000000000000
      0.6779900000D+04  0.2263627398D-02
      0.1017200000D+04  0.1737666915D-01
      0.2315700000D+03  0.8858106628D-01
      0.6554700000D+02  0.3349169890D+00
      0.7533900000D+01  0.7492273802D+00
 S   3 1.00       0.000000000000
      0.2125300000D+02  0.4890586855D+00
      0.7533900000D+01  0.1348498864D+00
      0.2803100000D+01  0.5111822158D+00
 S   3 1.00       0.000000000000
      0.5215100000D+00  0.5066722729D+00
      0.1595700000D+00  0.1617441668D+00
      0.4882500000D-01  0.5006817482D+00
 P   4 1.00       0.000000000000
      0.1873400000D+02  0.1856071740D-01
      0.4136200000D+01  0.1165215712D+00
      0.1200400000D+01  0.3803858461D+00
      0.3834600000D+00  0.6424267075D+00
 P   2 1.00       0.000000000000
      0.1212900000D+00  0.9259484457D+00
      0.3836500000D-01  0.1052305709D+00
 D   2 1.00       0.000000000000
      0.4169000000D+00  0.3437908159D+00
      0.1085609000D+00  0.7890567836D+00
 ****
     51 0
 S   5 1.00       0.000000000000
      0.6779900000D+04  0.2263627398D-02
      0.1017200000D+04  0.1737666915D-01
      0.2315700000D+03  0.8858106628D-01
      0.6554700000D+02  0.3349169890D+00
      0.7533900000D+01  0.7492273802D+00
 S   3 1.00       0.000000000000
      0.2125300000D+02  0.4890586855D+00
      0.7533900000D+01  0.1348498864D+00
      0.2803100000D+01  0.5111822158D+00
 S   3 1.00       0.000000000000
      0.5215100000D+00  0.5066722729D+00
      0.1595700000D+00  0.1617441668D+00
      0.4882500000D-01  0.5006817482D+00
 P   4 1.00       0.000000000000
      0.1873400000D+02  0.1856071740D-01
      0.4136200000D+01  0.1165215712D+00
      0.1200400000D+01  0.3803858461D+00
      0.3834600000D+00  0.6424267075D+00
 P   2 1.00       0.000000000000
      0.1212900000D+00  0.9259484457D+00
      0.3836500000D-01  0.1052305709D+00
 D   2 1.00       0.000000000000
      0.4169000000D+00  0.3437908159D+00
      0.1085609000D+00  0.7890567836D+00
 ****
     52 0
 S   3 1.00       0.000000000000
      0.1873584000D+02  0.2909665547D-01
      0.2825712000D+01  0.2092649935D+00
      0.6401370000D+00  0.8360439004D+00
 S   2 1.00       0.000000000000
      0.1756080000D+00  0.8811468938D+00
      0.4817400000D-01  0.1525169838D+00
 P   2 1.00       0.000000000000
      0.6058390000D+00  0.1146434882D+00
      0.1251770000D+00  0.9385230490D+00
 ****
     53 0
 S   3 1.00       0.000000000000
      0.1873584000D+02  0.2909665547D-01
      0.2825712000D+01  0.2092649935D+00
      0.6401370000D+00  0.8360439004D+00
 S   2 1.00       0.000000000000
      0.1756080000D+00  0.8811468938D+00
      0.4817400000D-01  0.1525169838D+00
 P   2 1.00       0.000000000000
      0.6058390000D+00  0.1146434882D+00
      0.1251770000D+00  0.9385230490D+00
 ****
     54 0
 S   3 1.00       0.000000000000
      0.1873584000D+02  0.2909665547D-01
      0.2825712000D+01  0.2092649935D+00
      0.6401370000D+00  0.8360439004D+00
 S   2 1.00       0.000000000000
      0.1756080000D+00  0.8811468938D+00
      0.4817400000D-01  0.1525169838D+00
 P   2 1.00       0.000000000000
      0.6058390000D+00  0.1146434882D+00
      0.1251770000D+00  0.9385230490D+00
 ****
     55 0
 S   3 1.00       0.000000000000
      0.1873584000D+02  0.2909665547D-01
      0.2825712000D+01  0.2092649935D+00
      0.6401370000D+00  0.8360439004D+00
 S   2 1.00       0.000000000000
      0.1756080000D+00  0.8811468938D+00
      0.4817400000D-01  0.1525169838D+00
 P   2 1.00       0.000000000000
      0.6058390000D+00  0.1146434882D+00
      0.1251770000D+00  0.9385230490D+00
 ****
     56 0
 S   3 1.00       0.000000000000
      0.1873584000D+02  0.2909665547D-01
      0.2825712000D+01  0.2092649935D+00
      0.6401370000D+00  0.8360439004D+00
 S   2 1.00       0.000000000000
      0.1756080000D+00  0.8811468938D+00
      0.4817400000D-01  0.1525169838D+00
 P   2 1.00       0.000000000000
      0.6058390000D+00  0.1146434882D+00
      0.1251770000D+00  0.9385230490D+00
 ****
     57 0
 S   3 1.00       0.000000000000
      0.1873584000D+02  0.2909665547D-01
      0.2825712000D+01  0.2092649935D+00
      0.6401370000D+00  0.8360439004D+00
 S   2 1.00       0.000000000000
      0.1756080000D+00  0.8811468938D+00
      0.4817400000D-01  0.1525169838D+00
 P   2 1.00       0.000000000000
[...]
                 1 
      1   0.958463D+05
      2  -0.278343D+03
      3   0.951020D+04
      4  -0.508549D+03
      5   0.139972D+02
      6  -0.122986D+03
      7  -0.280253D+03
      8   0.102098D+05
      9  -0.104065D+03
     10   0.199787D+02
     11  -0.834617D+02
     12   0.624517D+00
     13  -0.528282D+03
     14   0.200724D+02
     15  -0.936747D+02
     16  -0.823307D+02
     17   0.408730D+00
     18  -0.416830D+00

 ----------------------------------------------------------------------

 Electric dipole moment (input orientation):
 (Debye = 10**-18 statcoulomb cm , SI units = C m)
                  (au)            (Debye)         (10**-30 SI)
   Tot        0.176719D+01      0.449174D+01      0.149828D+02
   x          0.175633D+01      0.446413D+01      0.148907D+02
   y         -0.134236D-01     -0.341193D-01     -0.113810D+00
   z          0.195171D+00      0.496075D+00      0.165473D+01

 Dipole polarizability, Alpha (input orientation).
 (esu units = cm**3 , SI units = C**2 m**2 J**-1)
 Alpha(0;0):
               (au)            (10**-24 esu)      (10**-40 SI)
   iso        0.683772D+03      0.101325D+03      0.112739D+03
   aniso      0.609725D+03      0.903519D+02      0.100530D+03
   xx         0.992817D+03      0.147120D+03      0.163693D+03
   yx        -0.481731D+00     -0.713852D-01     -0.794267D-01
   yy         0.757883D+03      0.112307D+03      0.124958D+03
   zx         0.298008D+01      0.441603D+00      0.491349D+00
   zy         0.281345D+01      0.416911D+00      0.463876D+00
   zz         0.300617D+03      0.445469D+02      0.495651D+02
 Alpha(-w;w) w= 1907.0nm:
                  (au)         (10**-24 esu)      (10**-40 SI)
   iso        0.569274D+03      0.843577D+02      0.938606D+02
   aniso      0.558311D+03      0.827331D+02      0.920530D+02
   xx         0.860096D+03      0.127453D+03      0.141811D+03
   yx        -0.502957D+00     -0.745306D-01     -0.829264D-01
   yy         0.625014D+03      0.926175D+02      0.103051D+03
   zx         0.204946D+01      0.303699D+00      0.337910D+00
   zy         0.215457D+01      0.319274D+00      0.355240D+00
   zz         0.222712D+03      0.330026D+02      0.367203D+02

 First dipole hyperpolarizability, Beta (input orientation).
 ||, _|_  parallel and perpendicular components, (z) with respect to z axis,
 vector components x,y,z.  Values do not include the 1/n! factor of 1/2.
 (esu units = statvolt**-1 cm**4 , SI units = C**3 m**3 J**-2)
 Beta(0;0,0):
               (au)            (10**-30 esu)      (10**-50 SI)
   || (z)    -0.235005D+03     -0.203026D+01     -0.753511D+00
   _|_(z)    -0.783350D+02     -0.676753D+00     -0.251170D+00
   x          0.214513D+06      0.185322D+04      0.687806D+03
   y         -0.717070D+03     -0.619493D+01     -0.229919D+01
   z         -0.117502D+04     -0.101513D+02     -0.376755D+01
   ||         0.429035D+05      0.370653D+03      0.137564D+03
   xxx        0.665883D+05      0.575271D+03      0.213506D+03
   xxy       -0.194081D+03     -0.167671D+01     -0.622293D+00
   yxy        0.508219D+04      0.439062D+02      0.162953D+02
   yyy       -0.458394D+02     -0.396017D+00     -0.146978D+00
   xxz       -0.296706D+03     -0.256331D+01     -0.951345D+00
   yxz        0.139650D+01      0.120647D-01      0.447770D-02
   yyz       -0.783635D+02     -0.677000D+00     -0.251262D+00
   zxz       -0.166169D+03     -0.143557D+01     -0.532799D+00
   zyz        0.896930D+00      0.774878D-02      0.287588D-02
   zzz       -0.166057D+02     -0.143461D+00     -0.532440D-01
 Beta(-w;w,0) w= 1907.0nm:
                  (au)         (10**-30 esu)      (10**-50 SI)
   || (z)    -0.227769D+03     -0.196775D+01     -0.730310D+00
   _|_(z)    -0.521484D+02     -0.450521D+00     -0.167207D+00
   x          0.196225D+06      0.169524D+04      0.629170D+03
   y         -0.664830D+03     -0.574362D+01     -0.213169D+01
   z         -0.113885D+04     -0.983874D+01     -0.365155D+01
   ||         0.392460D+05      0.339055D+03      0.125837D+03
   xxx        0.604922D+05      0.522606D+03      0.193960D+03
   yxx       -0.174929D+03     -0.151125D+01     -0.560885D+00
   yyx        0.477227D+04      0.412287D+02      0.153016D+02
   zxx       -0.324490D+03     -0.280334D+01     -0.104043D+01
   zyx        0.478014D+01      0.412967D-01      0.153268D-01
   zzx       -0.647118D+02     -0.559060D+00     -0.207489D+00
   xxy       -0.174182D+03     -0.150480D+01     -0.558491D+00
   yxy        0.513052D+04      0.443237D+02      0.164503D+02
   yyy       -0.474749D+02     -0.410146D+00     -0.152222D+00
   zxy        0.357632D+01      0.308966D-01      0.114670D-01
   zyy       -0.752418D+02     -0.650031D+00     -0.241253D+00
   zzy        0.455992D+00      0.393942D-02      0.146208D-02
   xxz       -0.270766D+03     -0.233921D+01     -0.868173D+00
   yxz        0.541935D+01      0.468190D-01      0.173764D-01
   yyz       -0.576419D+02     -0.497981D+00     -0.184821D+00
   zxz       -0.109914D+03     -0.949572D+00     -0.352424D+00
   zyz        0.588888D+00      0.508753D-02      0.188819D-02
   zzz       -0.365813D+01     -0.316034D-01     -0.117293D-01
 Beta(-2w;w,w) w= 1907.0nm:
                  (au)         (10**-30 esu)      (10**-50 SI)
   || (z)    -0.361446D+03     -0.312261D+01     -0.115893D+01
   _|_(z)    -0.130464D+03     -0.112711D+01     -0.418315D+00
   x          0.317181D+06      0.274020D+04      0.101700D+04
   y         -0.114769D+04     -0.991516D+01     -0.367991D+01
   z         -0.180723D+04     -0.156131D+02     -0.579463D+01
   ||         0.634377D+05      0.548052D+03      0.203404D+03
   xxx        0.958463D+05      0.828038D+03      0.307318D+03
   yxx       -0.280253D+03     -0.242117D+01     -0.898593D+00
   zxx       -0.528282D+03     -0.456395D+01     -0.169386D+01
   xyx       -0.278343D+03     -0.240467D+01     -0.892469D+00
   yyx        0.102098D+05      0.882047D+02      0.327363D+02
   zyx        0.200724D+02      0.173410D+00      0.643595D-01
   xyy        0.951020D+04      0.821607D+02      0.304931D+02
   yyy       -0.104065D+03     -0.899037D+00     -0.333669D+00
   zyy       -0.936747D+02     -0.809276D+00     -0.300355D+00
   xzx       -0.508549D+03     -0.439347D+01     -0.163059D+01
   yzx        0.199787D+02      0.172600D+00      0.640588D-01
   zzx       -0.823307D+02     -0.711274D+00     -0.263982D+00
   xzy        0.139972D+02      0.120925D+00      0.448800D-01
   yzy       -0.834617D+02     -0.721044D+00     -0.267608D+00
   zzy        0.408730D+00      0.353111D-02      0.131054D-02
   xzz       -0.122986D+03     -0.106251D+01     -0.394338D+00
   yzz        0.624517D+00      0.539534D-02      0.200243D-02
   zzz       -0.416830D+00     -0.360108D-02     -0.133651D-02

 ----------------------------------------------------------------------

 Dipole orientation:
    78          0.25471616          0.00778694          1.88843883
     6         -0.07876742         -0.00183127         -1.97017915
     7          0.29722507         -3.82000163          2.56355324
     7          0.32881142          3.83879320          2.54581848
     6          0.21527469          5.62723649          0.75281544
     6          0.16464729         -5.61484742          0.77829006
     6          0.51669426          4.51476645          5.06271217
     6          0.48838712         -4.48681747          5.08251962
     6          0.61981410         -2.33045425          6.81646119
     6          0.63339431          2.36523475          6.80609611
     6          0.83324740          2.30487500          9.44978385
     6          0.57893726          7.07909606          5.72899234
     6          0.45904808          8.92680382          3.86631245
     6          0.27777386          8.19273646          1.32959005
     6          0.82061788         -2.25942561          9.45978715
     6          0.92683214          0.02536351         10.77971539
     6          0.54755416         -7.04899921          5.75798740
     6          0.41303543         -8.90340029          3.90290575
     1          0.70397302         -7.55987064          7.74405699
     6          0.21499495         -8.17816639          1.36482070
     6          0.53141524          0.01497761          5.56623806
     9          0.91926839         -4.40289699         10.80633967
     9          0.94322457          4.45371927         10.78696752
     1          0.02039171         -4.93819234         -1.16271722
     6          0.01096264        -10.13907940         -0.68949350
     1          0.46759456        -10.89744924          4.42978288
     1          0.06440490          4.94381342         -1.18539532
     6          0.20067400         10.14660607         -0.74021047
     1          0.71962816          7.59664096          7.71447020
     1          0.49976267         10.92268597          4.38699159
     6         -0.36150231         -0.01114358         -4.28998820
     6         -0.72106781         -0.02179478         -6.96974965
     6         -0.95807645          2.24496558         -8.36541883
     6         -0.88062571         -2.29974986         -8.35826101
     6         -1.33808897          2.24935640        -10.96534292
     6         -1.25940542         -2.32518204        -10.95828358
     6         -1.50663899         -0.04361897        -12.35393640
     7         -1.89275136         -0.05417222        -14.92788639
     1          1.08345445          0.02941100         12.83368374
     9         -1.49509604         11.96916160         -0.22771720
     9         -0.41125065          9.13779562         -2.98674150
     9          2.45191675         11.29968045         -1.01758821
     9          0.23047456         -9.12551569         -3.00546277
     9         -2.22562295        -11.34896575         -0.60201107
     9          1.81265220        -11.91666243         -0.45459451
     1         -0.84468464          4.05137300         -7.36933097
     1         -1.50926177          4.06120206        -11.92791940
     1         -1.36712135         -4.14472130        -11.91563515
     1         -0.70485717         -4.09810923         -7.35667559
     6         -2.14632248          2.31078095        -16.29168378
     6         -2.06431347         -2.43064653        -16.28445719
     1         -0.44084640          3.50473783        -16.12113003
     1         -3.77107465          3.43861906        -15.61873434
     1         -2.44192368          1.91471302        -18.30447796
     1         -3.64562793         -3.61395491        -15.60360406
     1         -0.31650003         -3.56205006        -16.11526633
     1         -2.37931547         -2.05132594        -18.29754449

 Electric dipole moment (dipole orientation):
 (Debye = 10**-18 statcoulomb cm , SI units = C m)
                  (au)            (Debye)         (10**-30 SI)
   Tot        0.176719D+01      0.449174D+01      0.149828D+02
   x          0.000000D+00      0.000000D+00      0.000000D+00
   y          0.000000D+00      0.000000D+00      0.000000D+00
   z          0.176719D+01      0.449174D+01      0.149828D+02

 Dipole polarizability, Alpha (dipole orientation).
 (esu units = cm**3 , SI units = C**2 m**2 J**-1)
 Alpha(0;0):
               (au)            (10**-24 esu)      (10**-40 SI)
   iso        0.683772D+03      0.101325D+03      0.112739D+03
   aniso      0.609725D+03      0.903519D+02      0.100530D+03
   xx         0.308396D+03      0.456996D+02      0.508476D+02
   yx         0.761770D+00      0.112883D+00      0.125599D+00
   yy         0.757904D+03      0.112310D+03      0.124961D+03
   zx         0.731031D+02      0.108328D+02      0.120531D+02
   zy         0.106033D+01      0.157124D+00      0.174824D+00
   zz         0.985017D+03      0.145964D+03      0.162407D+03
 Alpha(-w;w) w= 1907.0nm:
                  (au)         (10**-24 esu)      (10**-40 SI)
   iso        0.569274D+03      0.843577D+02      0.938606D+02
   aniso      0.558311D+03      0.827331D+02      0.920530D+02
   xx         0.230033D+03      0.340873D+02      0.379273D+02
   yx         0.100487D+01      0.148906D+00      0.165680D+00
   yy         0.625028D+03      0.926196D+02      0.103053D+03
   zx         0.679886D+02      0.100749D+02      0.112098D+02
   zy         0.100589D+01      0.149058D+00      0.165849D+00
   zz         0.852762D+03      0.126366D+03      0.140601D+03

 First dipole hyperpolarizability, Beta (dipole orientation).
 ||, _|_  parallel and perpendicular components, (z) with respect to z axis,
 vector components x,y,z.  Values do not include the 1/n! factor of 1/2.
 (esu units = statvolt**-1 cm**4 , SI units = C**3 m**3 J**-2)
 Beta(0;0,0):
               (au)            (10**-30 esu)      (10**-50 SI)
   || (z)     0.426140D+05      0.368152D+03      0.136636D+03
   _|_(z)     0.142047D+05      0.122717D+03      0.455453D+02
   x          0.248652D+05      0.214816D+03      0.797268D+02
   y          0.732403D+03      0.632739D+01      0.234835D+01
   z          0.213070D+06      0.184076D+04      0.683180D+03
   ||         0.429035D+05      0.370653D+03      0.137564D+03
   xxx        0.625742D+02      0.540593D+00      0.200636D+00
   xxy        0.118801D+02      0.102635D+00      0.380920D-01
   yxy        0.639560D+03      0.552530D+01      0.205066D+01
   yyy        0.560190D+02      0.483960D+00      0.179617D+00
   xxz        0.711296D+03      0.614505D+01      0.228067D+01
   yxz        0.594442D+02      0.513551D+00      0.190600D+00
   yyz        0.504203D+04      0.435592D+02      0.161666D+02
   zxz        0.758626D+04      0.655394D+02      0.243243D+02
   zyz        0.176235D+03      0.152253D+01      0.565074D+00
   zzz        0.652700D+05      0.563882D+03      0.209279D+03
 Beta(-w;w,0) w= 1907.0nm:
                  (au)         (10**-30 esu)      (10**-50 SI)
   || (z)     0.389797D+05      0.336755D+03      0.124983D+03
   _|_(z)     0.128922D+05      0.111378D+03      0.413369D+02
   x          0.228089D+05      0.197052D+03      0.731337D+02
   y          0.660588D+03      0.570696D+01      0.211808D+01
   z          0.194899D+06      0.168377D+04      0.624916D+03
   ||         0.392460D+05      0.339055D+03      0.125837D+03
   xxx        0.653332D+02      0.564428D+00      0.209482D+00
   yxx        0.104749D+02      0.904951D-01      0.335864D-01
   yyx        0.584667D+03      0.505107D+01      0.187465D+01
   zxx        0.692216D+03      0.598021D+01      0.221950D+01
   zyx        0.531793D+02      0.459428D+00      0.170512D+00
   zzx        0.688267D+04      0.594609D+02      0.220683D+02
   xxy        0.114616D+02      0.990190D-01      0.367499D-01
   yxy        0.641740D+03      0.554413D+01      0.205765D+01
   yyy        0.531407D+02      0.459094D+00      0.170388D+00
   zxy        0.550158D+02      0.475294D+00      0.176401D+00
   zyy        0.509046D+04      0.439776D+02      0.163219D+02
   zzy        0.154945D+03      0.133861D+01      0.496810D+00
   xxz        0.743049D+03      0.641936D+01      0.238248D+01
   yxz        0.509995D+02      0.440596D+00      0.163523D+00
   yyz        0.473638D+04      0.409186D+02      0.151865D+02
   zxz        0.693107D+04      0.598790D+02      0.222235D+02
   zyz        0.156905D+03      0.135553D+01      0.503093D+00
   zzz        0.592846D+05      0.512173D+03      0.190088D+03
 Beta(-2w;w,w) w= 1907.0nm:
                  (au)         (10**-30 esu)      (10**-50 SI)
   || (z)     0.630082D+05      0.544341D+03      0.202027D+03
   _|_(z)     0.207564D+05      0.179319D+03      0.665525D+02
   x          0.368347D+05      0.318224D+03      0.118106D+03
   y          0.994990D+03      0.859594D+01      0.319030D+01
   z          0.315041D+06      0.272171D+04      0.101013D+04
   ||         0.634377D+05      0.548052D+03      0.203404D+03
   xxx        0.117087D+03      0.101154D+01      0.375423D+00
   yxx        0.172420D+02      0.148957D+00      0.552840D-01
   zxx        0.115425D+04      0.997185D+01      0.370095D+01
   xyx        0.175653D+02      0.151750D+00      0.563207D-01
   yyx        0.121103D+04      0.104623D+02      0.388299D+01
   zyx        0.862680D+02      0.745288D+00      0.276606D+00
   xyy        0.114387D+04      0.988211D+01      0.366765D+01
   yyy        0.974246D+02      0.841672D+00      0.312378D+00
   zyy        0.944098D+04      0.815627D+02      0.302712D+02
   xzx        0.119679D+04      0.103393D+02      0.383733D+01
   yzx        0.845706D+02      0.730624D+00      0.271164D+00
   zzx        0.109675D+05      0.947505D+02      0.351657D+02
   xzy        0.852634D+02      0.736609D+00      0.273385D+00
   yzy        0.101374D+05      0.875796D+02      0.325043D+02
   zzy        0.218991D+03      0.189192D+01      0.702166D+00
   xzz        0.109826D+05      0.948811D+02      0.352142D+02
   yzz        0.212360D+03      0.183463D+01      0.680904D+00
   zzz        0.939257D+05      0.811445D+03      0.301160D+03

 ----------------------------------------------------------------------
 1\1\GINC-NEQC29\SP\RB3LYP\Gen\C28H17F8N3Pt1\GUEST\19-May-2023\0\\#p B3
 LYP/gen gfinput pseudo=read Integral(Grid=UltraFine,Acc2E=12) scf=maxc
 ycle=200 Polar=(DCSHG) CPHF=RdFreq scrf=(iefpcm,read,solvent=n,n-DiMet
 hylFormamide)\\Primeira Hiperpolarizabilidade\\0,1\Pt,0,1.008098,-0.00
 2554,-0.023564\C,0,-1.040778,0.006667,-0.073725\N,0,1.351872,-2.030588
 ,-0.021851\N,0,1.371945,2.022246,-0.008714\C,0,0.428756,2.975399,-0.04
 6602\C,0,0.398749,-2.973631,-0.063676\C,0,2.709059,2.370496,0.042286\C
 ,0,2.685437,-2.392871,0.022148\C,0,3.612802,-1.258329,0.063032\C,0,3.6
 25038,1.226484,0.074159\C,0,5.026887,1.184637,0.123314\C,0,3.072337,3.
 724956,0.058798\C,0,2.092345,4.709726,0.020417\C,0,0.74498,4.330839,-0
 .035451\C,0,5.014989,-1.230647,0.112194\C,0,5.723602,-0.026575,0.14265
 8\C,0,3.034924,-3.751151,0.020208\C,0,2.044754,-4.725434,-0.024916\H,0
 ,4.086755,-4.028899,0.051962\C,0,0.700942,-4.332187,-0.06618\C,0,2.958
 548,-0.012537,0.045884\F,0,5.721231,-2.369922,0.130392\F,0,5.744306,2.
 316718,0.152261\H,0,-0.628075,-2.608296,-0.098527\C,0,-0.398457,-5.362
 28,-0.086817\H,0,2.317868,-5.782506,-0.030833\H,0,-0.601877,2.621014,-
 0.083278\C,0,-0.341058,5.372771,-0.108014\H,0,4.126637,3.99134,0.10292
 3\H,0,2.375744,5.7639,0.037457\C,0,-2.277388,0.010047,-0.060642\C,0,-3
 .707803,0.013889,-0.028194\C,0,-4.447523,1.218102,0.023999\C,0,-4.4555
 8,-1.186483,-0.034584\C,0,-5.837091,1.229509,0.071927\C,0,-5.845235,-1
 .190852,0.01257\C,0,-6.585491,0.021157,0.070201\N,0,-7.961809,0.02453,
 0.122795\H,0,6.813007,-0.032126,0.180343\F,0,-0.164121,6.329015,0.8211
 11\F,0,-1.561973,4.845788,0.078463\F,0,-0.351158,5.992134,-1.303574\F,
 0,-1.600001,-4.815854,-0.333542\F,0,-0.487575,-6.010889,1.089708\F,0,-
 0.175967,-6.29735,-1.027787\H,0,-3.910527,2.170366,0.029839\H,0,-6.346
 824,2.1915,0.112978\H,0,-6.361574,-2.1502,0.005956\H,0,-3.925014,-2.14
 1478,-0.075718\C,0,-8.685382,1.280514,0.185956\C,0,-8.693844,-1.228145
 ,0.124189\H,0,-8.491668,1.917746,-0.696229\H,0,-8.422404,1.868759,1.08
 4316\H,0,-9.762669,1.077962,0.222194\H,0,-8.432484,-1.862718,0.990876\
 H,0,-8.506737,-1.821219,-0.789689\H,0,-9.76963,-1.020469,0.17373\\Vers
 ion=EM64L-G09RevD.01\State=1-A\HF=-2149.5179448\RMSD=3.176e-09\Dipole=
 1.7563258,-0.0134236,0.1951708\Polar=992.8166817,-0.4817312,757.882991
 6,2.9800827,2.8134528,300.6171304\HyperPolar=66588.2794838,-194.080864
 4,5082.1919999,-45.8394167,-296.7055639,1.3965048,-78.3635122,-166.169
 2335,0.8969302,-16.6057468\Quadrupole=34.5935238,-17.4763964,-17.11712
 74,-0.1714352,-1.4635427,0.4945187\PG=C01 [X(C28H17F8N3Pt1)]\\@


 "TIGER, TIGER BURNING BRIGHT
 IN THE FOREST OF THE NIGHT.
 WHAT IMMORTAL HAND OR EYE
 CAN FRAME THY FEARFUL SYMMETRYE?"
                     - WILLIAM BLAKE
 Job cpu time:       2 days 19 hours 30 minutes 56.1 seconds.
 File lengths (MBytes):  RWF=   4070 Int=      0 D2E=      0 Chk=     22 Scr=      1
 Normal termination of Gaussian 09 at Fri May 19 22:26:36 2023.
