 Entering Gaussian System, Link 0=g16
 Input=/home/nqtcm/Documentos/g16/NLO-V-LBS.com
 Output=/home/nqtcm/Documentos/g16/NLO-V-LBS.log
 Initial command:
 /home/scr/programas/g16/l1.exe "/home/scr/nqtcm/Gau-804.inp" -scrdir="/home/scr/nqtcm/"
 Entering Link 1 = /home/scr/programas/g16/l1.exe PID=       807.
  
 Copyright (c) 1988-2019, Gaussian, Inc.  All Rights Reserved.
  
 This is part of the Gaussian(R) 16 program.  It is based on
 the Gaussian(R) 09 system (copyright 2009, Gaussian, Inc.),
 the Gaussian(R) 03 system (copyright 2003, Gaussian, Inc.),
 the Gaussian(R) 98 system (copyright 1998, Gaussian, Inc.),
 the Gaussian(R) 94 system (copyright 1995, Gaussian, Inc.),
 the Gaussian 92(TM) system (copyright 1992, Gaussian, Inc.),
 the Gaussian 90(TM) system (copyright 1990, Gaussian, Inc.),
 the Gaussian 88(TM) system (copyright 1988, Gaussian, Inc.),
 the Gaussian 86(TM) system (copyright 1986, Carnegie Mellon
 University), and the Gaussian 82(TM) system (copyright 1983,
 Carnegie Mellon University). Gaussian is a federally registered
 trademark of Gaussian, Inc.
  
 This software contains proprietary and confidential information,
 including trade secrets, belonging to Gaussian, Inc.
  
 This software is provided under written license and may be
 used, copied, transmitted, or stored only in accord with that
 written license.
  
 The following legend is applicable only to US Government
 contracts under FAR:
  
                    RESTRICTED RIGHTS LEGEND
  
 Use, reproduction and disclosure by the US Government is
 subject to restrictions as set forth in subparagraphs (a)
 and (c) of the Commercial Computer Software - Restricted
 Rights clause in FAR 52.227-19.
  
 Gaussian, Inc.
 340 Quinnipiac St., Bldg. 40, Wallingford CT 06492
  
  
 ---------------------------------------------------------------
 Warning -- This program may not be used in any manner that
 competes with the business of Gaussian, Inc. or will provide
 assistance to any competitor of Gaussian, Inc.  The licensee
 of this program is prohibited from giving any competitor of
 Gaussian, Inc. access to this program.  By using this program,
 the user acknowledges that Gaussian, Inc. is engaged in the
 business of creating and licensing software in the field of
 computational chemistry and represents and warrants to the
 licensee that it is not a competitor of Gaussian, Inc. and that
 it will not use this program in any manner prohibited above.
 ---------------------------------------------------------------
  

 Cite this work as:
 Gaussian 16, Revision C.01,
 M. J. Frisch, G. W. Trucks, H. B. Schlegel, G. E. Scuseria, 
 M. A. Robb, J. R. Cheeseman, G. Scalmani, V. Barone, 
 G. A. Petersson, H. Nakatsuji, X. Li, M. Caricato, A. V. Marenich, 
 J. Bloino, B. G. Janesko, R. Gomperts, B. Mennucci, H. P. Hratchian, 
 J. V. Ortiz, A. F. Izmaylov, J. L. Sonnenberg, D. Williams-Young, 
 F. Ding, F. Lipparini, F. Egidi, J. Goings, B. Peng, A. Petrone, 
 T. Henderson, D. Ranasinghe, V. G. Zakrzewski, J. Gao, N. Rega, 
 G. Zheng, W. Liang, M. Hada, M. Ehara, K. Toyota, R. Fukuda, 
 J. Hasegawa, M. Ishida, T. Nakajima, Y. Honda, O. Kitao, H. Nakai, 
 T. Vreven, K. Throssell, J. A. Montgomery, Jr., J. E. Peralta, 
 F. Ogliaro, M. J. Bearpark, J. J. Heyd, E. N. Brothers, K. N. Kudin, 
 V. N. Staroverov, T. A. Keith, R. Kobayashi, J. Normand, 
 K. Raghavachari, A. P. Rendell, J. C. Burant, S. S. Iyengar, 
 J. Tomasi, M. Cossi, J. M. Millam, M. Klene, C. Adamo, R. Cammi, 
 J. W. Ochterski, R. L. Martin, K. Morokuma, O. Farkas, 
 J. B. Foresman, and D. J. Fox, Gaussian, Inc., Wallingford CT, 2019.
 
 ******************************************
 Gaussian 16:  EM64L-G16RevC.01  3-Jul-2019
                30-Jul-2024 
 ******************************************
 %chk=OPT_B3LYP_LANL2TZF_def2SVP_ONL_B3LYP_LANL2TZF_NLOV_IEFPCM.chk
 %mem=30Gb
 %nproc=8
 Will use up to    8 processors via shared memory.
 ----------------------------------------------------------------------
 #p B3LYP/gen gfinput pseudo=read Integral(Grid=UltraFine,Acc2E=12) scf
 =maxcycle=200 Polar=(DCSHG) CPHF=RdFreq scrf=(iefpcm,read,solvent=n,n-
 DiMethylFormamide)
 ----------------------------------------------------------------------
 1/38=1,40=2,83=1,172=1/1;
 2/12=2,17=6,18=5,40=1/2;
 3/5=7,11=2,16=1,17=8,24=10,25=1,27=12,30=1,70=2203,72=148,74=-5,75=-5/1,2,3;
 4//1;
 5/5=2,7=200,38=5,53=148,87=12,98=1/2;
 8/6=4,10=90,11=11,87=12/1;
 10/6=20001,13=10,72=3,87=12/2;
 6/7=2,8=2,9=2,10=2,28=1,87=12/1;
 99/5=1,9=1/99;
 Leave Link    1 at Tue Jul 30 12:29:53 2024, MaxMem=  4026531840 cpu:               0.4 elap:               0.1
 (Enter /home/scr/programas/g16/l101.exe)
 ------------------------------
 Primeira Hiperpolarizabilidade
 ------------------------------
 Symbolic Z-matrix:
 Charge =  0 Multiplicity = 1
 Pt                    1.0081   -0.00255  -0.02356 
 C                    -1.04078   0.00667  -0.07373 
 N                     1.35187  -2.03059  -0.02185 
 N                     1.37195   2.02225  -0.00871 
 C                     0.42876   2.9754   -0.0466 
 C                     0.39875  -2.97363  -0.06368 
 C                     2.70906   2.3705    0.04229 
 C                     2.68544  -2.39287   0.02215 
 C                     3.6128   -1.25833   0.06303 
 C                     3.62504   1.22648   0.07416 
 C                     5.02689   1.18464   0.12331 
 C                     3.07234   3.72496   0.0588 
 C                     2.09234   4.70973   0.02042 
 C                     0.74498   4.33084  -0.03545 
 C                     5.01499  -1.23065   0.11219 
 C                     5.7236   -0.02658   0.14266 
 C                     3.03492  -3.75115   0.02021 
 C                     2.04475  -4.72543  -0.02492 
 H                     4.08676  -4.0289    0.05196 
 C                     0.70094  -4.33219  -0.06618 
 C                     2.95855  -0.01254   0.04588 
 F                     5.72123  -2.36992   0.13039 
 F                     5.74431   2.31672   0.15226 
 H                    -0.62808  -2.6083   -0.09853 
 C                    -0.39846  -5.36228  -0.08682 
 H                     2.31787  -5.78251  -0.03083 
 H                    -0.60188   2.62101  -0.08328 
 C                    -0.34106   5.37277  -0.10801 
 H                     4.12664   3.99134   0.10292 
 H                     2.37574   5.7639    0.03746 
 C                    -2.27739   0.01005  -0.06064 
 C                    -3.7078    0.01389  -0.02819 
 C                    -4.44752   1.2181    0.024 
 C                    -4.45558  -1.18648  -0.03458 
 C                    -5.83709   1.22951   0.07193 
 C                    -5.84524  -1.19085   0.01257 
 C                    -6.58549   0.02116   0.0702 
 N                    -7.96181   0.02453   0.1228 
 H                     6.81301  -0.03213   0.18034 
 F                    -0.16412   6.32902   0.82111 
 F                    -1.56197   4.84579   0.07846 
 F                    -0.35116   5.99213  -1.30357 
 F                    -1.6      -4.81585  -0.33354 
 F                    -0.48758  -6.01089   1.08971 
 F                    -0.17597  -6.29735  -1.02779 
 H                    -3.91053   2.17037   0.02984 
 H                    -6.34682   2.1915    0.11298 
 H                    -6.36157  -2.1502    0.00596 
 H                    -3.92501  -2.14148  -0.07572 
 C                    -8.68538   1.28051   0.18596 
 C                    -8.69384  -1.22815   0.12419 
 H                    -8.49167   1.91775  -0.69623 
 H                    -8.4224    1.86876   1.08432 
 H                    -9.76267   1.07796   0.22219 
 H                    -8.43248  -1.86272   0.99088 
 H                    -8.50674  -1.82122  -0.78969 
 H                    -9.76963  -1.02047   0.17373 
 
 ITRead=  0  0  0  0  0  0  0  0  0  0  0  0  0  0  0  0  0  0  0  0
 ITRead=  0  0  0  0  0  0  0  0  0  0  0  0  0  0  0  0  0  0  0  0
 ITRead=  0  0  0  0  0  0  0  0  0  0  0  0  0  0  0  0  0
 MicOpt= -1 -1 -1 -1 -1 -1 -1 -1 -1 -1 -1 -1 -1 -1 -1 -1 -1 -1 -1 -1
 MicOpt= -1 -1 -1 -1 -1 -1 -1 -1 -1 -1 -1 -1 -1 -1 -1 -1 -1 -1 -1 -1
 MicOpt= -1 -1 -1 -1 -1 -1 -1 -1 -1 -1 -1 -1 -1 -1 -1 -1 -1
 NAtoms=     57 NQM=       57 NQMF=       0 NMMI=      0 NMMIF=      0
                NMic=       0 NMicF=      0.
                    Isotopes and Nuclear Properties:
 (Nuclear quadrupole moments (NQMom) in fm**2, nuclear magnetic moments (NMagM)
  in nuclear magnetons)

  Atom         1           2           3           4           5           6           7           8           9          10
 IAtWgt=         195          12          14          14          12          12          12          12          12          12
 AtmWgt= 194.9648000  12.0000000  14.0030740  14.0030740  12.0000000  12.0000000  12.0000000  12.0000000  12.0000000  12.0000000
 NucSpn=           1           0           2           2           0           0           0           0           0           0
 AtZEff=  -0.0000000  -0.0000000  -0.0000000  -0.0000000  -0.0000000  -0.0000000  -0.0000000  -0.0000000  -0.0000000  -0.0000000
 NQMom=    0.0000000   0.0000000   2.0440000   2.0440000   0.0000000   0.0000000   0.0000000   0.0000000   0.0000000   0.0000000
 NMagM=    0.6095000   0.0000000   0.4037610   0.4037610   0.0000000   0.0000000   0.0000000   0.0000000   0.0000000   0.0000000
 AtZNuc=  78.0000000   6.0000000   7.0000000   7.0000000   6.0000000   6.0000000   6.0000000   6.0000000   6.0000000   6.0000000

  Atom        11          12          13          14          15          16          17          18          19          20
 IAtWgt=          12          12          12          12          12          12          12          12           1          12
 AtmWgt=  12.0000000  12.0000000  12.0000000  12.0000000  12.0000000  12.0000000  12.0000000  12.0000000   1.0078250  12.0000000
 NucSpn=           0           0           0           0           0           0           0           0           1           0
 AtZEff=  -0.0000000  -0.0000000  -0.0000000  -0.0000000  -0.0000000  -0.0000000  -0.0000000  -0.0000000  -0.0000000  -0.0000000
 NQMom=    0.0000000   0.0000000   0.0000000   0.0000000   0.0000000   0.0000000   0.0000000   0.0000000   0.0000000   0.0000000
 NMagM=    0.0000000   0.0000000   0.0000000   0.0000000   0.0000000   0.0000000   0.0000000   0.0000000   2.7928460   0.0000000
 AtZNuc=   6.0000000   6.0000000   6.0000000   6.0000000   6.0000000   6.0000000   6.0000000   6.0000000   1.0000000   6.0000000

  Atom        21          22          23          24          25          26          27          28          29          30
 IAtWgt=          12          19          19           1          12           1           1          12           1           1
 AtmWgt=  12.0000000  18.9984033  18.9984033   1.0078250  12.0000000   1.0078250   1.0078250  12.0000000   1.0078250   1.0078250
 NucSpn=           0           1           1           1           0           1           1           0           1           1
 AtZEff=  -0.0000000  -0.0000000  -0.0000000  -0.0000000  -0.0000000  -0.0000000  -0.0000000  -0.0000000  -0.0000000  -0.0000000
 NQMom=    0.0000000   0.0000000   0.0000000   0.0000000   0.0000000   0.0000000   0.0000000   0.0000000   0.0000000   0.0000000
 NMagM=    0.0000000   2.6288670   2.6288670   2.7928460   0.0000000   2.7928460   2.7928460   0.0000000   2.7928460   2.7928460
 AtZNuc=   6.0000000   9.0000000   9.0000000   1.0000000   6.0000000   1.0000000   1.0000000   6.0000000   1.0000000   1.0000000

  Atom        31          32          33          34          35          36          37          38          39          40
 IAtWgt=          12          12          12          12          12          12          12          14           1          19
 AtmWgt=  12.0000000  12.0000000  12.0000000  12.0000000  12.0000000  12.0000000  12.0000000  14.0030740   1.0078250  18.9984033
 NucSpn=           0           0           0           0           0           0           0           2           1           1
 AtZEff=  -0.0000000  -0.0000000  -0.0000000  -0.0000000  -0.0000000  -0.0000000  -0.0000000  -0.0000000  -0.0000000  -0.0000000
 NQMom=    0.0000000   0.0000000   0.0000000   0.0000000   0.0000000   0.0000000   0.0000000   2.0440000   0.0000000   0.0000000
 NMagM=    0.0000000   0.0000000   0.0000000   0.0000000   0.0000000   0.0000000   0.0000000   0.4037610   2.7928460   2.6288670
 AtZNuc=   6.0000000   6.0000000   6.0000000   6.0000000   6.0000000   6.0000000   6.0000000   7.0000000   1.0000000   9.0000000

  Atom        41          42          43          44          45          46          47          48          49          50
 IAtWgt=          19          19          19          19          19           1           1           1           1          12
 AtmWgt=  18.9984033  18.9984033  18.9984033  18.9984033  18.9984033   1.0078250   1.0078250   1.0078250   1.0078250  12.0000000
 NucSpn=           1           1           1           1           1           1           1           1           1           0
 AtZEff=  -0.0000000  -0.0000000  -0.0000000  -0.0000000  -0.0000000  -0.0000000  -0.0000000  -0.0000000  -0.0000000  -0.0000000
 NQMom=    0.0000000   0.0000000   0.0000000   0.0000000   0.0000000   0.0000000   0.0000000   0.0000000   0.0000000   0.0000000
 NMagM=    2.6288670   2.6288670   2.6288670   2.6288670   2.6288670   2.7928460   2.7928460   2.7928460   2.7928460   0.0000000
 AtZNuc=   9.0000000   9.0000000   9.0000000   9.0000000   9.0000000   1.0000000   1.0000000   1.0000000   1.0000000   6.0000000

  Atom        51          52          53          54          55          56          57
 IAtWgt=          12           1           1           1           1           1           1
 AtmWgt=  12.0000000   1.0078250   1.0078250   1.0078250   1.0078250   1.0078250   1.0078250
 NucSpn=           0           1           1           1           1           1           1
 AtZEff=  -0.0000000  -0.0000000  -0.0000000  -0.0000000  -0.0000000  -0.0000000  -0.0000000
 NQMom=    0.0000000   0.0000000   0.0000000   0.0000000   0.0000000   0.0000000   0.0000000
 NMagM=    0.0000000   2.7928460   2.7928460   2.7928460   2.7928460   2.7928460   2.7928460
 AtZNuc=   6.0000000   1.0000000   1.0000000   1.0000000   1.0000000   1.0000000   1.0000000
 Using perturbation frequencies:    0.000000    0.023893
 Leave Link  101 at Tue Jul 30 12:29:53 2024, MaxMem=  4026531840 cpu:               1.2 elap:               0.2
 (Enter /home/scr/programas/g16/l202.exe)
 Stoichiometry    C28H17F8N3Pt
 Framework group  C1[X(C28H17F8N3Pt)]
 Deg. of freedom   165
 Full point group                 C1      NOp   1
 Largest Abelian subgroup         C1      NOp   1
 Largest concise Abelian subgroup C1      NOp   1
                         Standard orientation:                         
 ---------------------------------------------------------------------
 Center     Atomic      Atomic             Coordinates (Angstroms)
 Number     Number       Type             X           Y           Z
 ---------------------------------------------------------------------
      1         78           0       -1.008098   -0.002554    0.023564
      2          6           0        1.040778    0.006667    0.073725
      3          7           0       -1.351872   -2.030588    0.021851
      4          7           0       -1.371945    2.022246    0.008714
      5          6           0       -0.428755    2.975399    0.046602
      6          6           0       -0.398749   -2.973631    0.063676
      7          6           0       -2.709059    2.370497   -0.042286
      8          6           0       -2.685437   -2.392870   -0.022148
      9          6           0       -3.612802   -1.258328   -0.063032
     10          6           0       -3.625038    1.226485   -0.074159
     11          6           0       -5.026887    1.184638   -0.123314
     12          6           0       -3.072336    3.724957   -0.058798
     13          6           0       -2.092344    4.709726   -0.020417
     14          6           0       -0.744979    4.330839    0.035451
     15          6           0       -5.014989   -1.230646   -0.112194
     16          6           0       -5.723602   -0.026574   -0.142658
     17          6           0       -3.034925   -3.751150   -0.020208
     18          6           0       -2.044755   -4.725434    0.024916
     19          1           0       -4.086756   -4.028898   -0.051962
     20          6           0       -0.700943   -4.332187    0.066180
     21          6           0       -2.958548   -0.012536   -0.045884
     22          9           0       -5.721231   -2.369921   -0.130392
     23          9           0       -5.744306    2.316719   -0.152261
     24          1           0        0.628075   -2.608296    0.098527
     25          6           0        0.398456   -5.362280    0.086817
     26          1           0       -2.317869   -5.782506    0.030833
     27          1           0        0.601877    2.621014    0.083278
     28          6           0        0.341059    5.372771    0.108014
     29          1           0       -4.126636    3.991341   -0.102923
     30          1           0       -2.375743    5.763900   -0.037457
     31          6           0        2.277388    0.010047    0.060642
     32          6           0        3.707803    0.013889    0.028194
     33          6           0        4.447523    1.218101   -0.023999
     34          6           0        4.455580   -1.186484    0.034584
     35          6           0        5.837091    1.229508   -0.071927
     36          6           0        5.845235   -1.190853   -0.012570
     37          6           0        6.585491    0.021156   -0.070201
     38          7           0        7.961809    0.024529   -0.122795
     39          1           0       -6.813007   -0.032125   -0.180343
     40          9           0        0.164122    6.329015   -0.821111
     41          9           0        1.561974    4.845788   -0.078463
     42          9           0        0.351159    5.992134    1.303574
     43          9           0        1.600000   -4.815854    0.333542
     44          9           0        0.487574   -6.010889   -1.089708
     45          9           0        0.175966   -6.297350    1.027787
     46          1           0        3.910527    2.170366   -0.029839
     47          1           0        6.346824    2.191499   -0.112978
     48          1           0        6.361574   -2.150201   -0.005956
     49          1           0        3.925014   -2.141478    0.075718
     50          6           0        8.685382    1.280513   -0.185956
     51          6           0        8.693844   -1.228146   -0.124189
     52          1           0        8.491668    1.917745    0.696229
     53          1           0        8.422404    1.868758   -1.084316
     54          1           0        9.762669    1.077961   -0.222194
     55          1           0        8.432484   -1.862719   -0.990876
     56          1           0        8.506737   -1.821220    0.789689
     57          1           0        9.769630   -1.020470   -0.173730
 ---------------------------------------------------------------------
 Rotational constants (GHZ):           0.0734786           0.0557567           0.0320899
 Leave Link  202 at Tue Jul 30 12:29:53 2024, MaxMem=  4026531840 cpu:               0.0 elap:               0.0
 (Enter /home/scr/programas/g16/l301.exe)
 General basis read from cards:  (5D, 7F)
 Centers:      19     24     26     27     29     30     39     46     47     48
 Centers:      49     52     53     54     55     56     57
 S 3 1.00
     Exponent=  1.3010701000D+01 Coefficients=  1.7590000000D-02
     Exponent=  4.0897000000D+00 Coefficients=  1.3630000000D-02
     Exponent=  1.9622572000D+00 Coefficients=  1.0663000000D-01
 S 3 1.00
     Exponent=  9.6580000000D-01 Coefficients=  3.7210000000D-02
     Exponent=  4.4453796000D-01 Coefficients=  4.5523000000D-01
     Exponent=  1.2194962000D-01 Coefficients=  5.0768000000D-01
 P 2 1.00
     Exponent=  2.6166300000D+00 Coefficients=  2.3400000000D-03
     Exponent=  4.6280000000D-01 Coefficients=  5.2392000000D-01
 ****
 Centers:       2      5      6      7      8      9     10     11     12     13
 Centers:      14     15     16     17     18     20     21     25     28     31
 Centers:      32     33     34     35     36     37     50     51
 S 4 1.00
     Exponent=  1.2384016938D+03 Coefficients=  1.2100000000D-03
     Exponent=  1.8629004992D+02 Coefficients=  9.0900000000D-03
     Exponent=  4.2251176346D+01 Coefficients=  4.2390000000D-02
     Exponent=  1.1676557932D+01 Coefficients=  1.2681000000D-01
 S 3 1.00
     Exponent=  3.6232000000D+00 Coefficients=  5.0933000000D-01
     Exponent=  3.5930506482D+00 Coefficients=  3.1317000000D-01
     Exponent=  9.8747000000D-01 Coefficients=  1.0629000000D-01
 S 3 1.00
     Exponent=  4.0245147363D-01 Coefficients=  4.9676000000D-01
     Exponent=  3.0540000000D-01 Coefficients=  1.3329000000D-01
     Exponent=  1.3090182668D-01 Coefficients=  3.9437000000D-01
 P 4 1.00
     Exponent=  9.4680970621D+00 Coefficients=  3.7900000000D-02
     Exponent=  2.0103545142D+00 Coefficients=  1.9174000000D-01
     Exponent=  7.8390000000D-01 Coefficients=  1.0661000000D-01
     Exponent=  5.4771004707D-01 Coefficients=  3.1378000000D-01
 P 4 1.00
     Exponent=  1.9733000000D-01 Coefficients=  5.8063000000D-01
     Exponent=  1.5268613795D-01 Coefficients=  3.0638000000D-01
     Exponent=  1.0166000000D-01 Coefficients=  2.9351000000D-01
     Exponent=  4.3029300000D-02 Coefficients=  4.0530000000D-02
 D 2 1.00
     Exponent=  2.4860000000D+00 Coefficients=  2.2600000000D-03
     Exponent=  1.6412000000D-01 Coefficients=  9.9700000000D-03
 ****
 Centers:       3      4     38
 S 4 1.00
     Exponent=  1.7128415853D+03 Coefficients=  5.5400000000D-03
     Exponent=  2.5764812677D+02 Coefficients=  4.0990000000D-02
     Exponent=  5.8458245853D+01 Coefficients=  1.8400000000D-01
     Exponent=  1.6198367905D+01 Coefficients=  4.5739000000D-01
 S 3 1.00
     Exponent=  5.0357320000D+00 Coefficients=  4.7932000000D-01
     Exponent=  5.0052600809D+00 Coefficients=  3.7384000000D-01
     Exponent=  4.7757000000D+00 Coefficients=  4.3818000000D-01
 S 3 1.00
     Exponent=  1.4759000000D+00 Coefficients=  6.0400000000D-02
     Exponent=  5.8731856571D-01 Coefficients=  1.0640000000D-02
     Exponent=  1.8764592253D-01 Coefficients=  2.8700000000D-03
 P 4 1.00
     Exponent=  1.3571470233D+01 Coefficients=  4.1120000000D-02
     Exponent=  2.9257372874D+00 Coefficients=  2.0646000000D-01
     Exponent=  1.1492090000D+00 Coefficients=  1.1259000000D-01
     Exponent=  7.9927750754D-01 Coefficients=  3.3796000000D-01
 P 4 1.00
     Exponent=  2.8115000000D-01 Coefficients=  6.3876000000D-01
     Exponent=  2.1954348034D-01 Coefficients=  3.9014000000D-01
     Exponent=  1.4877000000D-01 Coefficients=  2.8174000000D-01
     Exponent=  5.9277000000D-02 Coefficients=  1.9660000000D-02
 D 2 1.00
     Exponent=  8.5220000000D+00 Coefficients=  7.4000000000D-04
     Exponent=  2.8030000000D+00 Coefficients=  5.5000000000D-03
 ****
 Centers:      22     23     40     41     42     43     44     45
 S 4 1.00
     Exponent=  2.8948325990D+03 Coefficients=  5.4400000000D-03
     Exponent=  4.3541939120D+02 Coefficients=  4.0320000000D-02
     Exponent=  9.8843328866D+01 Coefficients=  1.8236000000D-01
     Exponent=  2.7485198001D+01 Coefficients=  4.5562000000D-01
 S 3 1.00
     Exponent=  8.5405498171D+00 Coefficients=  6.7503000000D-01
     Exponent=  7.6064000000D+00 Coefficients=  6.3180000000D-02
     Exponent=  2.7570040000D+00 Coefficients=  9.8790000000D-02
 S 3 1.00
     Exponent=  1.0654578038D+00 Coefficients=  4.6772000000D-01
     Exponent=  8.1699200000D-01 Coefficients=  1.6811000000D-01
     Exponent=  3.3247346748D-01 Coefficients=  4.0540000000D-01
 P 4 1.00
     Exponent=  2.2696633924D+01 Coefficients=  4.1560000000D-02
     Exponent=  8.5462000000D+00 Coefficients=  2.7770000000D-02
     Exponent=  4.9872339257D+00 Coefficients=  1.8827000000D-01
     Exponent=  1.9602990000D+00 Coefficients=  1.5287000000D-01
 P 4 1.00
     Exponent=  1.3491613954D+00 Coefficients=  3.4074000000D-01
     Exponent=  4.7575000000D-01 Coefficients=  2.8814000000D-01
     Exponent=  3.4829881977D-01 Coefficients=  1.7039000000D-01
     Exponent=  7.9310000000D-02 Coefficients=  5.2720000000D-02
 D 2 1.00
     Exponent=  5.2756000000D+00 Coefficients=  1.9200000000D-03
     Exponent=  1.2581400000D+00 Coefficients=  9.8600000000D-03
 ****
 Centers:       1
 S 1 1.00
     Exponent=  2.5470000000D+00 Coefficients=  1.0000000000D+00
 S 1 1.00
     Exponent=  1.6140000000D+00 Coefficients=  1.0000000000D+00
 S 1 1.00
     Exponent=  5.1670000000D-01 Coefficients=  1.0000000000D+00
 S 1 1.00
     Exponent=  2.6510000000D-01 Coefficients=  1.0000000000D+00
 S 1 1.00
     Exponent=  5.8000000000D-02 Coefficients=  1.0000000000D+00
 P 1 1.00
     Exponent=  2.9110000000D+00 Coefficients=  1.0000000000D+00
 P 1 1.00
     Exponent=  1.8360000000D+00 Coefficients=  1.0000000000D+00
 P 1 1.00
     Exponent=  5.9820000000D-01 Coefficients=  1.0000000000D+00
 P 1 1.00
     Exponent=  9.9600000000D-02 Coefficients=  1.0000000000D+00
 P 1 1.00
     Exponent=  2.9000000000D-02 Coefficients=  1.0000000000D+00
 D 1 1.00
     Exponent=  1.2430000000D+00 Coefficients=  1.0000000000D+00
 D 1 1.00
     Exponent=  4.2710000000D-01 Coefficients=  1.0000000000D+00
 D 1 1.00
     Exponent=  1.3700000000D-01 Coefficients=  1.0000000000D+00
 F 1 1.00
     Exponent=  9.9300000000D-01 Coefficients=  1.0000000000D+00
 ****
 ======================================================================================================
                                       Pseudopotential Parameters
 ======================================================================================================
  Center     Atomic      Valence      Angular      Power
  Number     Number     Electrons     Momentum     of R      Exponent        Coefficient   SO-Coeffient
 ======================================================================================================
    1         78           18
                                      G and up 
                                                     1      728.9394056       -0.16192680    0.00000000
                                                     2      320.6567800    -1320.28738520    0.00000000
                                                     2       52.8680174     -298.31781350    0.00000000
                                                     2       12.0280128      -87.58370650    0.00000000
                                                     2        3.5238913       -8.14932740    0.00000000
                                      S - G
                                                     0      409.4437358        2.73342180    0.00000000
                                                     1      274.5419231       59.70243290    0.00000000
                                                     2      127.5658570      891.45895500    0.00000000
                                                     2       32.9036631      368.44676560    0.00000000
                                                     2        5.0593880      238.02630900    0.00000000
                                                     2        4.1506556     -107.05564540    0.00000000
                                      P - G
                                                     0      466.1728892        1.88785680    0.00000000
                                                     1      120.7888259       76.01386290    0.00000000
                                                     2       36.4118791      343.55111160    0.00000000
                                                     2        5.6985408      119.49117860    0.00000000
                                      D - G
                                                     0      249.5650763        2.93436780    0.00000000
                                                     1      126.6678585       59.33065710    0.00000000
                                                     2       63.1430586      452.44451940    0.00000000
                                                     2       17.9059470      210.47694790    0.00000000
                                                     2        4.2239373       58.62541120    0.00000000
                                      F - G
                                                     0      121.8158799        3.95342530    0.00000000
                                                     1       60.8757030       53.85551820    0.00000000
                                                     2       31.4767147      247.43051330    0.00000000
                                                     2        9.8811751      127.81879760    0.00000000
                                                     2        2.7319874       15.37720460    0.00000000
    2          6
                                   No pseudopotential on this center.
    3          7
                                   No pseudopotential on this center.
    4          7
                                   No pseudopotential on this center.
    5          6
                                   No pseudopotential on this center.
    6          6
                                   No pseudopotential on this center.
    7          6
                                   No pseudopotential on this center.
    8          6
                                   No pseudopotential on this center.
    9          6
                                   No pseudopotential on this center.
   10          6
                                   No pseudopotential on this center.
   11          6
                                   No pseudopotential on this center.
   12          6
                                   No pseudopotential on this center.
   13          6
                                   No pseudopotential on this center.
   14          6
                                   No pseudopotential on this center.
   15          6
                                   No pseudopotential on this center.
   16          6
                                   No pseudopotential on this center.
   17          6
                                   No pseudopotential on this center.
   18          6
                                   No pseudopotential on this center.
   19          1
                                   No pseudopotential on this center.
   20          6
                                   No pseudopotential on this center.
   21          6
                                   No pseudopotential on this center.
   22          9
                                   No pseudopotential on this center.
   23          9
                                   No pseudopotential on this center.
   24          1
                                   No pseudopotential on this center.
   25          6
                                   No pseudopotential on this center.
   26          1
                                   No pseudopotential on this center.
   27          1
                                   No pseudopotential on this center.
   28          6
                                   No pseudopotential on this center.
   29          1
                                   No pseudopotential on this center.
   30          1
                                   No pseudopotential on this center.
   31          6
                                   No pseudopotential on this center.
   32          6
                                   No pseudopotential on this center.
   33          6
                                   No pseudopotential on this center.
   34          6
                                   No pseudopotential on this center.
   35          6
                                   No pseudopotential on this center.
   36          6
                                   No pseudopotential on this center.
   37          6
                                   No pseudopotential on this center.
   38          7
                                   No pseudopotential on this center.
   39          1
                                   No pseudopotential on this center.
   40          9
                                   No pseudopotential on this center.
   41          9
                                   No pseudopotential on this center.
   42          9
                                   No pseudopotential on this center.
   43          9
                                   No pseudopotential on this center.
   44          9
                                   No pseudopotential on this center.
   45          9
                                   No pseudopotential on this center.
   46          1
                                   No pseudopotential on this center.
   47          1
                                   No pseudopotential on this center.
   48          1
                                   No pseudopotential on this center.
   49          1
                                   No pseudopotential on this center.
   50          6
                                   No pseudopotential on this center.
   51          6
                                   No pseudopotential on this center.
   52          1
                                   No pseudopotential on this center.
   53          1
                                   No pseudopotential on this center.
   54          1
                                   No pseudopotential on this center.
   55          1
                                   No pseudopotential on this center.
   56          1
                                   No pseudopotential on this center.
   57          1
                                   No pseudopotential on this center.
 ======================================================================================================
 Ernie: Thresh=  0.10000D-02 Tol=  0.10000D-05 Strict=F.
 AO basis set in the form of general basis input (Overlap normalization):
      1 0
 S   1 1.00       0.000000000000
      0.2547000000D+01  0.1000000000D+01
 S   1 1.00       0.000000000000
      0.1614000000D+01  0.1000000000D+01
 S   1 1.00       0.000000000000
      0.5167000000D+00  0.1000000000D+01
 S   1 1.00       0.000000000000
      0.2651000000D+00  0.1000000000D+01
 S   1 1.00       0.000000000000
      0.5800000000D-01  0.1000000000D+01
 P   1 1.00       0.000000000000
      0.2911000000D+01  0.1000000000D+01
 P   1 1.00       0.000000000000
      0.1836000000D+01  0.1000000000D+01
 P   1 1.00       0.000000000000
      0.5982000000D+00  0.1000000000D+01
 P   1 1.00       0.000000000000
      0.9960000000D-01  0.1000000000D+01
 P   1 1.00       0.000000000000
      0.2900000000D-01  0.1000000000D+01
 D   1 1.00       0.000000000000
      0.1243000000D+01  0.1000000000D+01
 D   1 1.00       0.000000000000
      0.4271000000D+00  0.1000000000D+01
 D   1 1.00       0.000000000000
      0.1370000000D+00  0.1000000000D+01
 F   1 1.00       0.000000000000
      0.9930000000D+00  0.1000000000D+01
 ****
      2 0
 S   4 1.00       0.000000000000
      0.1238401694D+04  0.7318906197D-02
      0.1862900499D+03  0.5498252672D-01
      0.4225117635D+02  0.2564036642D+00
      0.1167655793D+02  0.7670334668D+00
 S   3 1.00       0.000000000000
      0.3623200000D+01  0.5631739920D+00
      0.3593050648D+01  0.3462768717D+00
      0.9874700000D+00  0.1175264830D+00
 S   3 1.00       0.000000000000
      0.4024514736D+00  0.5081361219D+00
      0.3054000000D+00  0.1363424263D+00
      0.1309018267D+00  0.4034013254D+00
 P   4 1.00       0.000000000000
      0.9468097062D+01  0.6604998265D-01
      0.2010354514D+01  0.3341536589D+00
      0.7839000000D+00  0.1857938958D+00
      0.5477100471D+00  0.5468380885D+00
 P   4 1.00       0.000000000000
      0.1973300000D+00  0.4916449123D+00
      0.1526861380D+00  0.2594253970D+00
      0.1016600000D+00  0.2485278029D+00
      0.4302930000D-01  0.3431853038D-01
 D   2 1.00       0.000000000000
      0.2486000000D+01  0.2174551671D+00
      0.1641200000D+00  0.9593044317D+00
 ****
      3 0
 S   4 1.00       0.000000000000
      0.1712841585D+04  0.8822092334D-02
      0.2576481268D+03  0.6527392866D-01
      0.5845824585D+02  0.2930081209D+00
      0.1619836791D+02  0.7283640456D+00
 S   3 1.00       0.000000000000
      0.5035732000D+01  0.3712203014D+00
      0.5005260081D+01  0.2895289107D+00
      0.4775700000D+01  0.3393584905D+00
 S   3 1.00       0.000000000000
      0.1475900000D+01  0.8462238168D+00
      0.5873185657D+00  0.1490698909D+00
      0.1876459225D+00  0.4020964162D-01
 P   4 1.00       0.000000000000
      0.1357147023D+02  0.6672423253D-01
      0.2925737287D+01  0.3350166597D+00
      0.1149209000D+01  0.1826965307D+00
      0.7992775075D+00  0.5483978995D+00
 P   4 1.00       0.000000000000
      0.2811500000D+00  0.4917959735D+00
      0.2195434803D+00  0.3003777336D+00
      0.1487700000D+00  0.2169180875D+00
      0.5927700000D-01  0.1513668489D-01
 D   2 1.00       0.000000000000
      0.8522000000D+01  0.1239192556D+00
      0.2803000000D+01  0.9210214940D+00
 ****
      4 0
 S   4 1.00       0.000000000000
      0.1712841585D+04  0.8822092334D-02
      0.2576481268D+03  0.6527392866D-01
      0.5845824585D+02  0.2930081209D+00
      0.1619836791D+02  0.7283640456D+00
 S   3 1.00       0.000000000000
      0.5035732000D+01  0.3712203014D+00
      0.5005260081D+01  0.2895289107D+00
      0.4775700000D+01  0.3393584905D+00
 S   3 1.00       0.000000000000
      0.1475900000D+01  0.8462238168D+00
      0.5873185657D+00  0.1490698909D+00
      0.1876459225D+00  0.4020964162D-01
 P   4 1.00       0.000000000000
      0.1357147023D+02  0.6672423253D-01
      0.2925737287D+01  0.3350166597D+00
      0.1149209000D+01  0.1826965307D+00
      0.7992775075D+00  0.5483978995D+00
 P   4 1.00       0.000000000000
      0.2811500000D+00  0.4917959735D+00
      0.2195434803D+00  0.3003777336D+00
      0.1487700000D+00  0.2169180875D+00
      0.5927700000D-01  0.1513668489D-01
 D   2 1.00       0.000000000000
      0.8522000000D+01  0.1239192556D+00
      0.2803000000D+01  0.9210214940D+00
 ****
      5 0
 S   4 1.00       0.000000000000
      0.1238401694D+04  0.7318906197D-02
      0.1862900499D+03  0.5498252672D-01
      0.4225117635D+02  0.2564036642D+00
      0.1167655793D+02  0.7670334668D+00
 S   3 1.00       0.000000000000
      0.3623200000D+01  0.5631739920D+00
      0.3593050648D+01  0.3462768717D+00
      0.9874700000D+00  0.1175264830D+00
 S   3 1.00       0.000000000000
      0.4024514736D+00  0.5081361219D+00
      0.3054000000D+00  0.1363424263D+00
      0.1309018267D+00  0.4034013254D+00
 P   4 1.00       0.000000000000
      0.9468097062D+01  0.6604998265D-01
      0.2010354514D+01  0.3341536589D+00
      0.7839000000D+00  0.1857938958D+00
      0.5477100471D+00  0.5468380885D+00
 P   4 1.00       0.000000000000
      0.1973300000D+00  0.4916449123D+00
      0.1526861380D+00  0.2594253970D+00
      0.1016600000D+00  0.2485278029D+00
      0.4302930000D-01  0.3431853038D-01
 D   2 1.00       0.000000000000
      0.2486000000D+01  0.2174551671D+00
      0.1641200000D+00  0.9593044317D+00
 ****
      6 0
 S   4 1.00       0.000000000000
      0.1238401694D+04  0.7318906197D-02
      0.1862900499D+03  0.5498252672D-01
      0.4225117635D+02  0.2564036642D+00
      0.1167655793D+02  0.7670334668D+00
 S   3 1.00       0.000000000000
      0.3623200000D+01  0.5631739920D+00
      0.3593050648D+01  0.3462768717D+00
      0.9874700000D+00  0.1175264830D+00
 S   3 1.00       0.000000000000
      0.4024514736D+00  0.5081361219D+00
      0.3054000000D+00  0.1363424263D+00
      0.1309018267D+00  0.4034013254D+00
 P   4 1.00       0.000000000000
      0.9468097062D+01  0.6604998265D-01
      0.2010354514D+01  0.3341536589D+00
      0.7839000000D+00  0.1857938958D+00
      0.5477100471D+00  0.5468380885D+00
 P   4 1.00       0.000000000000
      0.1973300000D+00  0.4916449123D+00
      0.1526861380D+00  0.2594253970D+00
      0.1016600000D+00  0.2485278029D+00
      0.4302930000D-01  0.3431853038D-01
 D   2 1.00       0.000000000000
      0.2486000000D+01  0.2174551671D+00
      0.1641200000D+00  0.9593044317D+00
 ****
      7 0
 S   4 1.00       0.000000000000
      0.1238401694D+04  0.7318906197D-02
      0.1862900499D+03  0.5498252672D-01
      0.4225117635D+02  0.2564036642D+00
      0.1167655793D+02  0.7670334668D+00
 S   3 1.00       0.000000000000
      0.3623200000D+01  0.5631739920D+00
      0.3593050648D+01  0.3462768717D+00
      0.9874700000D+00  0.1175264830D+00
 S   3 1.00       0.000000000000
      0.4024514736D+00  0.5081361219D+00
      0.3054000000D+00  0.1363424263D+00
      0.1309018267D+00  0.4034013254D+00
 P   4 1.00       0.000000000000
      0.9468097062D+01  0.6604998265D-01
      0.2010354514D+01  0.3341536589D+00
      0.7839000000D+00  0.1857938958D+00
      0.5477100471D+00  0.5468380885D+00
 P   4 1.00       0.000000000000
      0.1973300000D+00  0.4916449123D+00
      0.1526861380D+00  0.2594253970D+00
      0.1016600000D+00  0.2485278029D+00
      0.4302930000D-01  0.3431853038D-01
 D   2 1.00       0.000000000000
      0.2486000000D+01  0.2174551671D+00
      0.1641200000D+00  0.9593044317D+00
 ****
      8 0
 S   4 1.00       0.000000000000
      0.1238401694D+04  0.7318906197D-02
      0.1862900499D+03  0.5498252672D-01
      0.4225117635D+02  0.2564036642D+00
      0.1167655793D+02  0.7670334668D+00
 S   3 1.00       0.000000000000
      0.3623200000D+01  0.5631739920D+00
      0.3593050648D+01  0.3462768717D+00
      0.9874700000D+00  0.1175264830D+00
 S   3 1.00       0.000000000000
      0.4024514736D+00  0.5081361219D+00
      0.3054000000D+00  0.1363424263D+00
      0.1309018267D+00  0.4034013254D+00
 P   4 1.00       0.000000000000
      0.9468097062D+01  0.6604998265D-01
      0.2010354514D+01  0.3341536589D+00
      0.7839000000D+00  0.1857938958D+00
      0.5477100471D+00  0.5468380885D+00
 P   4 1.00       0.000000000000
      0.1973300000D+00  0.4916449123D+00
      0.1526861380D+00  0.2594253970D+00
      0.1016600000D+00  0.2485278029D+00
      0.4302930000D-01  0.3431853038D-01
 D   2 1.00       0.000000000000
      0.2486000000D+01  0.2174551671D+00
      0.1641200000D+00  0.9593044317D+00
 ****
      9 0
 S   4 1.00       0.000000000000
      0.1238401694D+04  0.7318906197D-02
      0.1862900499D+03  0.5498252672D-01
      0.4225117635D+02  0.2564036642D+00
      0.1167655793D+02  0.7670334668D+00
 S   3 1.00       0.000000000000
      0.3623200000D+01  0.5631739920D+00
      0.3593050648D+01  0.3462768717D+00
      0.9874700000D+00  0.1175264830D+00
 S   3 1.00       0.000000000000
      0.4024514736D+00  0.5081361219D+00
      0.3054000000D+00  0.1363424263D+00
      0.1309018267D+00  0.4034013254D+00
 P   4 1.00       0.000000000000
      0.9468097062D+01  0.6604998265D-01
      0.2010354514D+01  0.3341536589D+00
      0.7839000000D+00  0.1857938958D+00
      0.5477100471D+00  0.5468380885D+00
 P   4 1.00       0.000000000000
      0.1973300000D+00  0.4916449123D+00
      0.1526861380D+00  0.2594253970D+00
      0.1016600000D+00  0.2485278029D+00
      0.4302930000D-01  0.3431853038D-01
 D   2 1.00       0.000000000000
      0.2486000000D+01  0.2174551671D+00
      0.1641200000D+00  0.9593044317D+00
 ****
     10 0
 S   4 1.00       0.000000000000
      0.1238401694D+04  0.7318906197D-02
      0.1862900499D+03  0.5498252672D-01
      0.4225117635D+02  0.2564036642D+00
      0.1167655793D+02  0.7670334668D+00
 S   3 1.00       0.000000000000
      0.3623200000D+01  0.5631739920D+00
      0.3593050648D+01  0.3462768717D+00
      0.9874700000D+00  0.1175264830D+00
 S   3 1.00       0.000000000000
      0.4024514736D+00  0.5081361219D+00
      0.3054000000D+00  0.1363424263D+00
      0.1309018267D+00  0.4034013254D+00
 P   4 1.00       0.000000000000
      0.9468097062D+01  0.6604998265D-01
      0.2010354514D+01  0.3341536589D+00
      0.7839000000D+00  0.1857938958D+00
      0.5477100471D+00  0.5468380885D+00
 P   4 1.00       0.000000000000
      0.1973300000D+00  0.4916449123D+00
      0.1526861380D+00  0.2594253970D+00
      0.1016600000D+00  0.2485278029D+00
      0.4302930000D-01  0.3431853038D-01
 D   2 1.00       0.000000000000
      0.2486000000D+01  0.2174551671D+00
      0.1641200000D+00  0.9593044317D+00
 ****
     11 0
 S   4 1.00       0.000000000000
      0.1238401694D+04  0.7318906197D-02
      0.1862900499D+03  0.5498252672D-01
      0.4225117635D+02  0.2564036642D+00
      0.1167655793D+02  0.7670334668D+00
 S   3 1.00       0.000000000000
      0.3623200000D+01  0.5631739920D+00
      0.3593050648D+01  0.3462768717D+00
      0.9874700000D+00  0.1175264830D+00
 S   3 1.00       0.000000000000
      0.4024514736D+00  0.5081361219D+00
      0.3054000000D+00  0.1363424263D+00
      0.1309018267D+00  0.4034013254D+00
 P   4 1.00       0.000000000000
      0.9468097062D+01  0.6604998265D-01
      0.2010354514D+01  0.3341536589D+00
      0.7839000000D+00  0.1857938958D+00
      0.5477100471D+00  0.5468380885D+00
 P   4 1.00       0.000000000000
      0.1973300000D+00  0.4916449123D+00
      0.1526861380D+00  0.2594253970D+00
      0.1016600000D+00  0.2485278029D+00
      0.4302930000D-01  0.3431853038D-01
 D   2 1.00       0.000000000000
      0.2486000000D+01  0.2174551671D+00
      0.1641200000D+00  0.9593044317D+00
 ****
     12 0
 S   4 1.00       0.000000000000
      0.1238401694D+04  0.7318906197D-02
      0.1862900499D+03  0.5498252672D-01
      0.4225117635D+02  0.2564036642D+00
      0.1167655793D+02  0.7670334668D+00
 S   3 1.00       0.000000000000
      0.3623200000D+01  0.5631739920D+00
      0.3593050648D+01  0.3462768717D+00
      0.9874700000D+00  0.1175264830D+00
 S   3 1.00       0.000000000000
      0.4024514736D+00  0.5081361219D+00
      0.3054000000D+00  0.1363424263D+00
      0.1309018267D+00  0.4034013254D+00
 P   4 1.00       0.000000000000
      0.9468097062D+01  0.6604998265D-01
      0.2010354514D+01  0.3341536589D+00
      0.7839000000D+00  0.1857938958D+00
      0.5477100471D+00  0.5468380885D+00
 P   4 1.00       0.000000000000
      0.1973300000D+00  0.4916449123D+00
      0.1526861380D+00  0.2594253970D+00
      0.1016600000D+00  0.2485278029D+00
      0.4302930000D-01  0.3431853038D-01
 D   2 1.00       0.000000000000
      0.2486000000D+01  0.2174551671D+00
      0.1641200000D+00  0.9593044317D+00
 ****
     13 0
 S   4 1.00       0.000000000000
      0.1238401694D+04  0.7318906197D-02
      0.1862900499D+03  0.5498252672D-01
      0.4225117635D+02  0.2564036642D+00
      0.1167655793D+02  0.7670334668D+00
 S   3 1.00       0.000000000000
      0.3623200000D+01  0.5631739920D+00
      0.3593050648D+01  0.3462768717D+00
      0.9874700000D+00  0.1175264830D+00
 S   3 1.00       0.000000000000
      0.4024514736D+00  0.5081361219D+00
      0.3054000000D+00  0.1363424263D+00
      0.1309018267D+00  0.4034013254D+00
 P   4 1.00       0.000000000000
      0.9468097062D+01  0.6604998265D-01
      0.2010354514D+01  0.3341536589D+00
      0.7839000000D+00  0.1857938958D+00
      0.5477100471D+00  0.5468380885D+00
 P   4 1.00       0.000000000000
      0.1973300000D+00  0.4916449123D+00
      0.1526861380D+00  0.2594253970D+00
      0.1016600000D+00  0.2485278029D+00
      0.4302930000D-01  0.3431853038D-01
 D   2 1.00       0.000000000000
      0.2486000000D+01  0.2174551671D+00
      0.1641200000D+00  0.9593044317D+00
 ****
     14 0
 S   4 1.00       0.000000000000
      0.1238401694D+04  0.7318906197D-02
      0.1862900499D+03  0.5498252672D-01
      0.4225117635D+02  0.2564036642D+00
      0.1167655793D+02  0.7670334668D+00
 S   3 1.00       0.000000000000
      0.3623200000D+01  0.5631739920D+00
      0.3593050648D+01  0.3462768717D+00
      0.9874700000D+00  0.1175264830D+00
 S   3 1.00       0.000000000000
      0.4024514736D+00  0.5081361219D+00
      0.3054000000D+00  0.1363424263D+00
      0.1309018267D+00  0.4034013254D+00
 P   4 1.00       0.000000000000
      0.9468097062D+01  0.6604998265D-01
      0.2010354514D+01  0.3341536589D+00
      0.7839000000D+00  0.1857938958D+00
      0.5477100471D+00  0.5468380885D+00
 P   4 1.00       0.000000000000
      0.1973300000D+00  0.4916449123D+00
      0.1526861380D+00  0.2594253970D+00
      0.1016600000D+00  0.2485278029D+00
      0.4302930000D-01  0.3431853038D-01
 D   2 1.00       0.000000000000
      0.2486000000D+01  0.2174551671D+00
      0.1641200000D+00  0.9593044317D+00
 ****
     15 0
 S   4 1.00       0.000000000000
      0.1238401694D+04  0.7318906197D-02
      0.1862900499D+03  0.5498252672D-01
      0.4225117635D+02  0.2564036642D+00
      0.1167655793D+02  0.7670334668D+00
 S   3 1.00       0.000000000000
      0.3623200000D+01  0.5631739920D+00
      0.3593050648D+01  0.3462768717D+00
      0.9874700000D+00  0.1175264830D+00
 S   3 1.00       0.000000000000
      0.4024514736D+00  0.5081361219D+00
      0.3054000000D+00  0.1363424263D+00
      0.1309018267D+00  0.4034013254D+00
 P   4 1.00       0.000000000000
      0.9468097062D+01  0.6604998265D-01
      0.2010354514D+01  0.3341536589D+00
      0.7839000000D+00  0.1857938958D+00
      0.5477100471D+00  0.5468380885D+00
 P   4 1.00       0.000000000000
      0.1973300000D+00  0.4916449123D+00
      0.1526861380D+00  0.2594253970D+00
      0.1016600000D+00  0.2485278029D+00
      0.4302930000D-01  0.3431853038D-01
 D   2 1.00       0.000000000000
      0.2486000000D+01  0.2174551671D+00
      0.1641200000D+00  0.9593044317D+00
 ****
     16 0
 S   4 1.00       0.000000000000
      0.1238401694D+04  0.7318906197D-02
      0.1862900499D+03  0.5498252672D-01
      0.4225117635D+02  0.2564036642D+00
      0.1167655793D+02  0.7670334668D+00
 S   3 1.00       0.000000000000
      0.3623200000D+01  0.5631739920D+00
      0.3593050648D+01  0.3462768717D+00
      0.9874700000D+00  0.1175264830D+00
 S   3 1.00       0.000000000000
      0.4024514736D+00  0.5081361219D+00
      0.3054000000D+00  0.1363424263D+00
      0.1309018267D+00  0.4034013254D+00
 P   4 1.00       0.000000000000
      0.9468097062D+01  0.6604998265D-01
      0.2010354514D+01  0.3341536589D+00
      0.7839000000D+00  0.1857938958D+00
      0.5477100471D+00  0.5468380885D+00
 P   4 1.00       0.000000000000
      0.1973300000D+00  0.4916449123D+00
      0.1526861380D+00  0.2594253970D+00
      0.1016600000D+00  0.2485278029D+00
      0.4302930000D-01  0.3431853038D-01
 D   2 1.00       0.000000000000
      0.2486000000D+01  0.2174551671D+00
      0.1641200000D+00  0.9593044317D+00
 ****
     17 0
 S   4 1.00       0.000000000000
      0.1238401694D+04  0.7318906197D-02
      0.1862900499D+03  0.5498252672D-01
      0.4225117635D+02  0.2564036642D+00
      0.1167655793D+02  0.7670334668D+00
 S   3 1.00       0.000000000000
      0.3623200000D+01  0.5631739920D+00
      0.3593050648D+01  0.3462768717D+00
      0.9874700000D+00  0.1175264830D+00
 S   3 1.00       0.000000000000
      0.4024514736D+00  0.5081361219D+00
      0.3054000000D+00  0.1363424263D+00
      0.1309018267D+00  0.4034013254D+00
 P   4 1.00       0.000000000000
      0.9468097062D+01  0.6604998265D-01
      0.2010354514D+01  0.3341536589D+00
      0.7839000000D+00  0.1857938958D+00
      0.5477100471D+00  0.5468380885D+00
 P   4 1.00       0.000000000000
      0.1973300000D+00  0.4916449123D+00
      0.1526861380D+00  0.2594253970D+00
      0.1016600000D+00  0.2485278029D+00
      0.4302930000D-01  0.3431853038D-01
 D   2 1.00       0.000000000000
      0.2486000000D+01  0.2174551671D+00
      0.1641200000D+00  0.9593044317D+00
 ****
     18 0
 S   4 1.00       0.000000000000
      0.1238401694D+04  0.7318906197D-02
      0.1862900499D+03  0.5498252672D-01
      0.4225117635D+02  0.2564036642D+00
      0.1167655793D+02  0.7670334668D+00
 S   3 1.00       0.000000000000
      0.3623200000D+01  0.5631739920D+00
      0.3593050648D+01  0.3462768717D+00
      0.9874700000D+00  0.1175264830D+00
 S   3 1.00       0.000000000000
      0.4024514736D+00  0.5081361219D+00
      0.3054000000D+00  0.1363424263D+00
      0.1309018267D+00  0.4034013254D+00
 P   4 1.00       0.000000000000
      0.9468097062D+01  0.6604998265D-01
      0.2010354514D+01  0.3341536589D+00
      0.7839000000D+00  0.1857938958D+00
      0.5477100471D+00  0.5468380885D+00
 P   4 1.00       0.000000000000
      0.1973300000D+00  0.4916449123D+00
      0.1526861380D+00  0.2594253970D+00
      0.1016600000D+00  0.2485278029D+00
      0.4302930000D-01  0.3431853038D-01
 D   2 1.00       0.000000000000
      0.2486000000D+01  0.2174551671D+00
      0.1641200000D+00  0.9593044317D+00
 ****
     19 0
 S   3 1.00       0.000000000000
      0.1301070100D+02  0.1350845383D+00
      0.4089700000D+01  0.1046732381D+00
      0.1962257200D+01  0.8188780172D+00
 S   3 1.00       0.000000000000
      0.9658000000D+00  0.4012152577D-01
      0.4445379600D+00  0.4908498301D+00
      0.1219496200D+00  0.5474038217D+00
 P   2 1.00       0.000000000000
      0.2616630000D+01  0.4457696979D-02
      0.4628000000D+00  0.9980669237D+00
 ****
     20 0
 S   4 1.00       0.000000000000
      0.1238401694D+04  0.7318906197D-02
      0.1862900499D+03  0.5498252672D-01
      0.4225117635D+02  0.2564036642D+00
      0.1167655793D+02  0.7670334668D+00
 S   3 1.00       0.000000000000
      0.3623200000D+01  0.5631739920D+00
      0.3593050648D+01  0.3462768717D+00
      0.9874700000D+00  0.1175264830D+00
 S   3 1.00       0.000000000000
      0.4024514736D+00  0.5081361219D+00
      0.3054000000D+00  0.1363424263D+00
      0.1309018267D+00  0.4034013254D+00
 P   4 1.00       0.000000000000
      0.9468097062D+01  0.6604998265D-01
      0.2010354514D+01  0.3341536589D+00
      0.7839000000D+00  0.1857938958D+00
      0.5477100471D+00  0.5468380885D+00
 P   4 1.00       0.000000000000
      0.1973300000D+00  0.4916449123D+00
      0.1526861380D+00  0.2594253970D+00
      0.1016600000D+00  0.2485278029D+00
      0.4302930000D-01  0.3431853038D-01
 D   2 1.00       0.000000000000
      0.2486000000D+01  0.2174551671D+00
      0.1641200000D+00  0.9593044317D+00
 ****
     21 0
 S   4 1.00       0.000000000000
      0.1238401694D+04  0.7318906197D-02
      0.1862900499D+03  0.5498252672D-01
      0.4225117635D+02  0.2564036642D+00
      0.1167655793D+02  0.7670334668D+00
 S   3 1.00       0.000000000000
      0.3623200000D+01  0.5631739920D+00
      0.3593050648D+01  0.3462768717D+00
      0.9874700000D+00  0.1175264830D+00
 S   3 1.00       0.000000000000
      0.4024514736D+00  0.5081361219D+00
      0.3054000000D+00  0.1363424263D+00
      0.1309018267D+00  0.4034013254D+00
 P   4 1.00       0.000000000000
      0.9468097062D+01  0.6604998265D-01
      0.2010354514D+01  0.3341536589D+00
      0.7839000000D+00  0.1857938958D+00
      0.5477100471D+00  0.5468380885D+00
 P   4 1.00       0.000000000000
      0.1973300000D+00  0.4916449123D+00
      0.1526861380D+00  0.2594253970D+00
      0.1016600000D+00  0.2485278029D+00
      0.4302930000D-01  0.3431853038D-01
 D   2 1.00       0.000000000000
      0.2486000000D+01  0.2174551671D+00
      0.1641200000D+00  0.9593044317D+00
 ****
     22 0
 S   4 1.00       0.000000000000
      0.2894832599D+04  0.8709255097D-02
      0.4354193912D+03  0.6455094955D-01
      0.9884332887D+02  0.2919521617D+00
      0.2748519800D+02  0.7294321337D+00
 S   3 1.00       0.000000000000
      0.8540549817D+01  0.8240295858D+00
      0.7606400000D+01  0.7712574142D-01
      0.2757004000D+01  0.1205959480D+00
 S   3 1.00       0.000000000000
      0.1065457804D+01  0.4719265335D+00
      0.8169920000D+00  0.1696219310D+00
      0.3324734675D+00  0.4090460461D+00
 P   4 1.00       0.000000000000
      0.2269663392D+02  0.1142855751D+00
      0.8546200000D+01  0.7636454334D-01
      0.4987233926D+01  0.5177224550D+00
      0.1960299000D+01  0.4203762240D+00
 P   4 1.00       0.000000000000
      0.1349161395D+01  0.4540152741D+00
      0.4757500000D+00  0.3839289813D+00
      0.3482988198D+00  0.2270342858D+00
      0.7931000000D-01  0.7024618551D-01
 D   2 1.00       0.000000000000
      0.5275600000D+01  0.1772036450D+00
      0.1258140000D+01  0.9100145520D+00
 ****
     23 0
 S   4 1.00       0.000000000000
      0.2894832599D+04  0.8709255097D-02
      0.4354193912D+03  0.6455094955D-01
      0.9884332887D+02  0.2919521617D+00
      0.2748519800D+02  0.7294321337D+00
 S   3 1.00       0.000000000000
      0.8540549817D+01  0.8240295858D+00
      0.7606400000D+01  0.7712574142D-01
      0.2757004000D+01  0.1205959480D+00
 S   3 1.00       0.000000000000
      0.1065457804D+01  0.4719265335D+00
      0.8169920000D+00  0.1696219310D+00
      0.3324734675D+00  0.4090460461D+00
 P   4 1.00       0.000000000000
      0.2269663392D+02  0.1142855751D+00
      0.8546200000D+01  0.7636454334D-01
      0.4987233926D+01  0.5177224550D+00
      0.1960299000D+01  0.4203762240D+00
 P   4 1.00       0.000000000000
      0.1349161395D+01  0.4540152741D+00
      0.4757500000D+00  0.3839289813D+00
      0.3482988198D+00  0.2270342858D+00
      0.7931000000D-01  0.7024618551D-01
 D   2 1.00       0.000000000000
      0.5275600000D+01  0.1772036450D+00
      0.1258140000D+01  0.9100145520D+00
 ****
     24 0
 S   3 1.00       0.000000000000
      0.1301070100D+02  0.1350845383D+00
      0.4089700000D+01  0.1046732381D+00
      0.1962257200D+01  0.8188780172D+00
 S   3 1.00       0.000000000000
      0.9658000000D+00  0.4012152577D-01
      0.4445379600D+00  0.4908498301D+00
      0.1219496200D+00  0.5474038217D+00
 P   2 1.00       0.000000000000
      0.2616630000D+01  0.4457696979D-02
      0.4628000000D+00  0.9980669237D+00
 ****
     25 0
 S   4 1.00       0.000000000000
      0.1238401694D+04  0.7318906197D-02
      0.1862900499D+03  0.5498252672D-01
      0.4225117635D+02  0.2564036642D+00
      0.1167655793D+02  0.7670334668D+00
 S   3 1.00       0.000000000000
      0.3623200000D+01  0.5631739920D+00
      0.3593050648D+01  0.3462768717D+00
      0.9874700000D+00  0.1175264830D+00
 S   3 1.00       0.000000000000
      0.4024514736D+00  0.5081361219D+00
      0.3054000000D+00  0.1363424263D+00
      0.1309018267D+00  0.4034013254D+00
 P   4 1.00       0.000000000000
      0.9468097062D+01  0.6604998265D-01
      0.2010354514D+01  0.3341536589D+00
      0.7839000000D+00  0.1857938958D+00
      0.5477100471D+00  0.5468380885D+00
 P   4 1.00       0.000000000000
      0.1973300000D+00  0.4916449123D+00
      0.1526861380D+00  0.2594253970D+00
      0.1016600000D+00  0.2485278029D+00
      0.4302930000D-01  0.3431853038D-01
 D   2 1.00       0.000000000000
      0.2486000000D+01  0.2174551671D+00
      0.1641200000D+00  0.9593044317D+00
 ****
     26 0
 S   3 1.00       0.000000000000
      0.1301070100D+02  0.1350845383D+00
      0.4089700000D+01  0.1046732381D+00
      0.1962257200D+01  0.8188780172D+00
 S   3 1.00       0.000000000000
      0.9658000000D+00  0.4012152577D-01
      0.4445379600D+00  0.4908498301D+00
      0.1219496200D+00  0.5474038217D+00
 P   2 1.00       0.000000000000
      0.2616630000D+01  0.4457696979D-02
      0.4628000000D+00  0.9980669237D+00
 ****
     27 0
 S   3 1.00       0.000000000000
      0.1301070100D+02  0.1350845383D+00
      0.4089700000D+01  0.1046732381D+00
      0.1962257200D+01  0.8188780172D+00
 S   3 1.00       0.000000000000
      0.9658000000D+00  0.4012152577D-01
      0.4445379600D+00  0.4908498301D+00
      0.1219496200D+00  0.5474038217D+00
 P   2 1.00       0.000000000000
      0.2616630000D+01  0.4457696979D-02
      0.4628000000D+00  0.9980669237D+00
 ****
     28 0
 S   4 1.00       0.000000000000
      0.1238401694D+04  0.7318906197D-02
      0.1862900499D+03  0.5498252672D-01
      0.4225117635D+02  0.2564036642D+00
      0.1167655793D+02  0.7670334668D+00
 S   3 1.00       0.000000000000
      0.3623200000D+01  0.5631739920D+00
      0.3593050648D+01  0.3462768717D+00
      0.9874700000D+00  0.1175264830D+00
 S   3 1.00       0.000000000000
      0.4024514736D+00  0.5081361219D+00
      0.3054000000D+00  0.1363424263D+00
      0.1309018267D+00  0.4034013254D+00
 P   4 1.00       0.000000000000
      0.9468097062D+01  0.6604998265D-01
      0.2010354514D+01  0.3341536589D+00
      0.7839000000D+00  0.1857938958D+00
      0.5477100471D+00  0.5468380885D+00
 P   4 1.00       0.000000000000
      0.1973300000D+00  0.4916449123D+00
      0.1526861380D+00  0.2594253970D+00
      0.1016600000D+00  0.2485278029D+00
      0.4302930000D-01  0.3431853038D-01
 D   2 1.00       0.000000000000
      0.2486000000D+01  0.2174551671D+00
      0.1641200000D+00  0.9593044317D+00
 ****
     29 0
 S   3 1.00       0.000000000000
      0.1301070100D+02  0.1350845383D+00
      0.4089700000D+01  0.1046732381D+00
      0.1962257200D+01  0.8188780172D+00
 S   3 1.00       0.000000000000
      0.9658000000D+00  0.4012152577D-01
      0.4445379600D+00  0.4908498301D+00
      0.1219496200D+00  0.5474038217D+00
 P   2 1.00       0.000000000000
      0.2616630000D+01  0.4457696979D-02
      0.4628000000D+00  0.9980669237D+00
 ****
     30 0
 S   3 1.00       0.000000000000
      0.1301070100D+02  0.1350845383D+00
      0.4089700000D+01  0.1046732381D+00
      0.1962257200D+01  0.8188780172D+00
 S   3 1.00       0.000000000000
      0.9658000000D+00  0.4012152577D-01
      0.4445379600D+00  0.4908498301D+00
      0.1219496200D+00  0.5474038217D+00
 P   2 1.00       0.000000000000
      0.2616630000D+01  0.4457696979D-02
      0.4628000000D+00  0.9980669237D+00
 ****
     31 0
 S   4 1.00       0.000000000000
      0.1238401694D+04  0.7318906197D-02
      0.1862900499D+03  0.5498252672D-01
      0.4225117635D+02  0.2564036642D+00
      0.1167655793D+02  0.7670334668D+00
 S   3 1.00       0.000000000000
      0.3623200000D+01  0.5631739920D+00
      0.3593050648D+01  0.3462768717D+00
      0.9874700000D+00  0.1175264830D+00
 S   3 1.00       0.000000000000
      0.4024514736D+00  0.5081361219D+00
      0.3054000000D+00  0.1363424263D+00
      0.1309018267D+00  0.4034013254D+00
 P   4 1.00       0.000000000000
      0.9468097062D+01  0.6604998265D-01
      0.2010354514D+01  0.3341536589D+00
      0.7839000000D+00  0.1857938958D+00
      0.5477100471D+00  0.5468380885D+00
 P   4 1.00       0.000000000000
      0.1973300000D+00  0.4916449123D+00
      0.1526861380D+00  0.2594253970D+00
      0.1016600000D+00  0.2485278029D+00
      0.4302930000D-01  0.3431853038D-01
 D   2 1.00       0.000000000000
      0.2486000000D+01  0.2174551671D+00
      0.1641200000D+00  0.9593044317D+00
 ****
     32 0
 S   4 1.00       0.000000000000
      0.1238401694D+04  0.7318906197D-02
      0.1862900499D+03  0.5498252672D-01
      0.4225117635D+02  0.2564036642D+00
      0.1167655793D+02  0.7670334668D+00
 S   3 1.00       0.000000000000
      0.3623200000D+01  0.5631739920D+00
      0.3593050648D+01  0.3462768717D+00
      0.9874700000D+00  0.1175264830D+00
 S   3 1.00       0.000000000000
      0.4024514736D+00  0.5081361219D+00
      0.3054000000D+00  0.1363424263D+00
      0.1309018267D+00  0.4034013254D+00
 P   4 1.00       0.000000000000
      0.9468097062D+01  0.6604998265D-01
      0.2010354514D+01  0.3341536589D+00
      0.7839000000D+00  0.1857938958D+00
      0.5477100471D+00  0.5468380885D+00
 P   4 1.00       0.000000000000
      0.1973300000D+00  0.4916449123D+00
      0.1526861380D+00  0.2594253970D+00
      0.1016600000D+00  0.2485278029D+00
      0.4302930000D-01  0.3431853038D-01
 D   2 1.00       0.000000000000
      0.2486000000D+01  0.2174551671D+00
      0.1641200000D+00  0.9593044317D+00
 ****
     33 0
 S   4 1.00       0.000000000000
      0.1238401694D+04  0.7318906197D-02
      0.1862900499D+03  0.5498252672D-01
      0.4225117635D+02  0.2564036642D+00
      0.1167655793D+02  0.7670334668D+00
 S   3 1.00       0.000000000000
      0.3623200000D+01  0.5631739920D+00
      0.3593050648D+01  0.3462768717D+00
      0.9874700000D+00  0.1175264830D+00
 S   3 1.00       0.000000000000
      0.4024514736D+00  0.5081361219D+00
      0.3054000000D+00  0.1363424263D+00
      0.1309018267D+00  0.4034013254D+00
 P   4 1.00       0.000000000000
      0.9468097062D+01  0.6604998265D-01
      0.2010354514D+01  0.3341536589D+00
      0.7839000000D+00  0.1857938958D+00
      0.5477100471D+00  0.5468380885D+00
 P   4 1.00       0.000000000000
      0.1973300000D+00  0.4916449123D+00
      0.1526861380D+00  0.2594253970D+00
      0.1016600000D+00  0.2485278029D+00
      0.4302930000D-01  0.3431853038D-01
 D   2 1.00       0.000000000000
      0.2486000000D+01  0.2174551671D+00
      0.1641200000D+00  0.9593044317D+00
 ****
     34 0
 S   4 1.00       0.000000000000
      0.1238401694D+04  0.7318906197D-02
      0.1862900499D+03  0.5498252672D-01
      0.4225117635D+02  0.2564036642D+00
      0.1167655793D+02  0.7670334668D+00
 S   3 1.00       0.000000000000
      0.3623200000D+01  0.5631739920D+00
      0.3593050648D+01  0.3462768717D+00
      0.9874700000D+00  0.1175264830D+00
 S   3 1.00       0.000000000000
      0.4024514736D+00  0.5081361219D+00
      0.3054000000D+00  0.1363424263D+00
      0.1309018267D+00  0.4034013254D+00
 P   4 1.00       0.000000000000
      0.9468097062D+01  0.6604998265D-01
      0.2010354514D+01  0.3341536589D+00
      0.7839000000D+00  0.1857938958D+00
      0.5477100471D+00  0.5468380885D+00
 P   4 1.00       0.000000000000
      0.1973300000D+00  0.4916449123D+00
      0.1526861380D+00  0.2594253970D+00
      0.1016600000D+00  0.2485278029D+00
      0.4302930000D-01  0.3431853038D-01
 D   2 1.00       0.000000000000
      0.2486000000D+01  0.2174551671D+00
      0.1641200000D+00  0.9593044317D+00
 ****
     35 0
 S   4 1.00       0.000000000000
      0.1238401694D+04  0.7318906197D-02
      0.1862900499D+03  0.5498252672D-01
      0.4225117635D+02  0.2564036642D+00
      0.1167655793D+02  0.7670334668D+00
 S   3 1.00       0.000000000000
      0.3623200000D+01  0.5631739920D+00
      0.3593050648D+01  0.3462768717D+00
      0.9874700000D+00  0.1175264830D+00
 S   3 1.00       0.000000000000
      0.4024514736D+00  0.5081361219D+00
      0.3054000000D+00  0.1363424263D+00
      0.1309018267D+00  0.4034013254D+00
 P   4 1.00       0.000000000000
      0.9468097062D+01  0.6604998265D-01
      0.2010354514D+01  0.3341536589D+00
      0.7839000000D+00  0.1857938958D+00
      0.5477100471D+00  0.5468380885D+00
 P   4 1.00       0.000000000000
      0.1973300000D+00  0.4916449123D+00
      0.1526861380D+00  0.2594253970D+00
      0.1016600000D+00  0.2485278029D+00
      0.4302930000D-01  0.3431853038D-01
 D   2 1.00       0.000000000000
      0.2486000000D+01  0.2174551671D+00
      0.1641200000D+00  0.9593044317D+00
 ****
     36 0
 S   4 1.00       0.000000000000
      0.1238401694D+04  0.7318906197D-02
      0.1862900499D+03  0.5498252672D-01
      0.4225117635D+02  0.2564036642D+00
      0.1167655793D+02  0.7670334668D+00
 S   3 1.00       0.000000000000
      0.3623200000D+01  0.5631739920D+00
      0.3593050648D+01  0.3462768717D+00
      0.9874700000D+00  0.1175264830D+00
 S   3 1.00       0.000000000000
      0.4024514736D+00  0.5081361219D+00
      0.3054000000D+00  0.1363424263D+00
      0.1309018267D+00  0.4034013254D+00
 P   4 1.00       0.000000000000
      0.9468097062D+01  0.6604998265D-01
      0.2010354514D+01  0.3341536589D+00
      0.7839000000D+00  0.1857938958D+00
      0.5477100471D+00  0.5468380885D+00
 P   4 1.00       0.000000000000
      0.1973300000D+00  0.4916449123D+00
      0.1526861380D+00  0.2594253970D+00
      0.1016600000D+00  0.2485278029D+00
      0.4302930000D-01  0.3431853038D-01
 D   2 1.00       0.000000000000
      0.2486000000D+01  0.2174551671D+00
      0.1641200000D+00  0.9593044317D+00
 ****
     37 0
 S   4 1.00       0.000000000000
      0.1238401694D+04  0.7318906197D-02
      0.1862900499D+03  0.5498252672D-01
      0.4225117635D+02  0.2564036642D+00
      0.1167655793D+02  0.7670334668D+00
 S   3 1.00       0.000000000000
      0.3623200000D+01  0.5631739920D+00
      0.3593050648D+01  0.3462768717D+00
      0.9874700000D+00  0.1175264830D+00
 S   3 1.00       0.000000000000
      0.4024514736D+00  0.5081361219D+00
      0.3054000000D+00  0.1363424263D+00
      0.1309018267D+00  0.4034013254D+00
 P   4 1.00       0.000000000000
      0.9468097062D+01  0.6604998265D-01
      0.2010354514D+01  0.3341536589D+00
      0.7839000000D+00  0.1857938958D+00
      0.5477100471D+00  0.5468380885D+00
 P   4 1.00       0.000000000000
      0.1973300000D+00  0.4916449123D+00
      0.1526861380D+00  0.2594253970D+00
      0.1016600000D+00  0.2485278029D+00
      0.4302930000D-01  0.3431853038D-01
 D   2 1.00       0.000000000000
      0.2486000000D+01  0.2174551671D+00
      0.1641200000D+00  0.9593044317D+00
 ****
     38 0
 S   4 1.00       0.000000000000
      0.1712841585D+04  0.8822092334D-02
      0.2576481268D+03  0.6527392866D-01
      0.5845824585D+02  0.2930081209D+00
      0.1619836791D+02  0.7283640456D+00
 S   3 1.00       0.000000000000
      0.5035732000D+01  0.3712203014D+00
      0.5005260081D+01  0.2895289107D+00
      0.4775700000D+01  0.3393584905D+00
 S   3 1.00       0.000000000000
      0.1475900000D+01  0.8462238168D+00
      0.5873185657D+00  0.1490698909D+00
      0.1876459225D+00  0.4020964162D-01
 P   4 1.00       0.000000000000
      0.1357147023D+02  0.6672423253D-01
      0.2925737287D+01  0.3350166597D+00
      0.1149209000D+01  0.1826965307D+00
      0.7992775075D+00  0.5483978995D+00
 P   4 1.00       0.000000000000
      0.2811500000D+00  0.4917959735D+00
      0.2195434803D+00  0.3003777336D+00
      0.1487700000D+00  0.2169180875D+00
      0.5927700000D-01  0.1513668489D-01
 D   2 1.00       0.000000000000
      0.8522000000D+01  0.1239192556D+00
      0.2803000000D+01  0.9210214940D+00
 ****
     39 0
 S   3 1.00       0.000000000000
      0.1301070100D+02  0.1350845383D+00
      0.4089700000D+01  0.1046732381D+00
      0.1962257200D+01  0.8188780172D+00
 S   3 1.00       0.000000000000
      0.9658000000D+00  0.4012152577D-01
      0.4445379600D+00  0.4908498301D+00
      0.1219496200D+00  0.5474038217D+00
 P   2 1.00       0.000000000000
      0.2616630000D+01  0.4457696979D-02
      0.4628000000D+00  0.9980669237D+00
 ****
     40 0
 S   4 1.00       0.000000000000
      0.2894832599D+04  0.8709255097D-02
      0.4354193912D+03  0.6455094955D-01
      0.9884332887D+02  0.2919521617D+00
      0.2748519800D+02  0.7294321337D+00
 S   3 1.00       0.000000000000
      0.8540549817D+01  0.8240295858D+00
      0.7606400000D+01  0.7712574142D-01
      0.2757004000D+01  0.1205959480D+00
 S   3 1.00       0.000000000000
      0.1065457804D+01  0.4719265335D+00
      0.8169920000D+00  0.1696219310D+00
      0.3324734675D+00  0.4090460461D+00
 P   4 1.00       0.000000000000
      0.2269663392D+02  0.1142855751D+00
      0.8546200000D+01  0.7636454334D-01
      0.4987233926D+01  0.5177224550D+00
      0.1960299000D+01  0.4203762240D+00
 P   4 1.00       0.000000000000
      0.1349161395D+01  0.4540152741D+00
      0.4757500000D+00  0.3839289813D+00
      0.3482988198D+00  0.2270342858D+00
      0.7931000000D-01  0.7024618551D-01
 D   2 1.00       0.000000000000
      0.5275600000D+01  0.1772036450D+00
      0.1258140000D+01  0.9100145520D+00
 ****
     41 0
 S   4 1.00       0.000000000000
      0.2894832599D+04  0.8709255097D-02
      0.4354193912D+03  0.6455094955D-01
      0.9884332887D+02  0.2919521617D+00
      0.2748519800D+02  0.7294321337D+00
 S   3 1.00       0.000000000000
      0.8540549817D+01  0.8240295858D+00
      0.7606400000D+01  0.7712574142D-01
      0.2757004000D+01  0.1205959480D+00
 S   3 1.00       0.000000000000
      0.1065457804D+01  0.4719265335D+00
      0.8169920000D+00  0.1696219310D+00
      0.3324734675D+00  0.4090460461D+00
 P   4 1.00       0.000000000000
      0.2269663392D+02  0.1142855751D+00
      0.8546200000D+01  0.7636454334D-01
      0.4987233926D+01  0.5177224550D+00
      0.1960299000D+01  0.4203762240D+00
 P   4 1.00       0.000000000000
      0.1349161395D+01  0.4540152741D+00
      0.4757500000D+00  0.3839289813D+00
      0.3482988198D+00  0.2270342858D+00
      0.7931000000D-01  0.7024618551D-01
 D   2 1.00       0.000000000000
      0.5275600000D+01  0.1772036450D+00
      0.1258140000D+01  0.9100145520D+00
 ****
     42 0
 S   4 1.00       0.000000000000
      0.2894832599D+04  0.8709255097D-02
      0.4354193912D+03  0.6455094955D-01
      0.9884332887D+02  0.2919521617D+00
      0.2748519800D+02  0.7294321337D+00
 S   3 1.00       0.000000000000
      0.8540549817D+01  0.8240295858D+00
      0.7606400000D+01  0.7712574142D-01
      0.2757004000D+01  0.1205959480D+00
 S   3 1.00       0.000000000000
      0.1065457804D+01  0.4719265335D+00
      0.8169920000D+00  0.1696219310D+00
      0.3324734675D+00  0.4090460461D+00
 P   4 1.00       0.000000000000
      0.2269663392D+02  0.1142855751D+00
      0.8546200000D+01  0.7636454334D-01
      0.4987233926D+01  0.5177224550D+00
      0.1960299000D+01  0.4203762240D+00
 P   4 1.00       0.000000000000
      0.1349161395D+01  0.4540152741D+00
      0.4757500000D+00  0.3839289813D+00
      0.3482988198D+00  0.2270342858D+00
      0.7931000000D-01  0.7024618551D-01
 D   2 1.00       0.000000000000
      0.5275600000D+01  0.1772036450D+00
      0.1258140000D+01  0.9100145520D+00
 ****
     43 0
 S   4 1.00       0.000000000000
      0.2894832599D+04  0.8709255097D-02
      0.4354193912D+03  0.6455094955D-01
      0.9884332887D+02  0.2919521617D+00
      0.2748519800D+02  0.7294321337D+00
 S   3 1.00       0.000000000000
      0.8540549817D+01  0.8240295858D+00
      0.7606400000D+01  0.7712574142D-01
      0.2757004000D+01  0.1205959480D+00
 S   3 1.00       0.000000000000
      0.1065457804D+01  0.4719265335D+00
      0.8169920000D+00  0.1696219310D+00
      0.3324734675D+00  0.4090460461D+00
 P   4 1.00       0.000000000000
      0.2269663392D+02  0.1142855751D+00
      0.8546200000D+01  0.7636454334D-01
      0.4987233926D+01  0.5177224550D+00
      0.1960299000D+01  0.4203762240D+00
 P   4 1.00       0.000000000000
      0.1349161395D+01  0.4540152741D+00
      0.4757500000D+00  0.3839289813D+00
      0.3482988198D+00  0.2270342858D+00
      0.7931000000D-01  0.7024618551D-01
 D   2 1.00       0.000000000000
      0.5275600000D+01  0.1772036450D+00
      0.1258140000D+01  0.9100145520D+00
 ****
     44 0
 S   4 1.00       0.000000000000
      0.2894832599D+04  0.8709255097D-02
      0.4354193912D+03  0.6455094955D-01
      0.9884332887D+02  0.2919521617D+00
      0.2748519800D+02  0.7294321337D+00
 S   3 1.00       0.000000000000
      0.8540549817D+01  0.8240295858D+00
      0.7606400000D+01  0.7712574142D-01
      0.2757004000D+01  0.1205959480D+00
 S   3 1.00       0.000000000000
      0.1065457804D+01  0.4719265335D+00
      0.8169920000D+00  0.1696219310D+00
      0.3324734675D+00  0.4090460461D+00
 P   4 1.00       0.000000000000
      0.2269663392D+02  0.1142855751D+00
      0.8546200000D+01  0.7636454334D-01
      0.4987233926D+01  0.5177224550D+00
      0.1960299000D+01  0.4203762240D+00
 P   4 1.00       0.000000000000
      0.1349161395D+01  0.4540152741D+00
      0.4757500000D+00  0.3839289813D+00
      0.3482988198D+00  0.2270342858D+00
      0.7931000000D-01  0.7024618551D-01
 D   2 1.00       0.000000000000
      0.5275600000D+01  0.1772036450D+00
      0.1258140000D+01  0.9100145520D+00
 ****
     45 0
 S   4 1.00       0.000000000000
      0.2894832599D+04  0.8709255097D-02
      0.4354193912D+03  0.6455094955D-01
      0.9884332887D+02  0.2919521617D+00
      0.2748519800D+02  0.7294321337D+00
 S   3 1.00       0.000000000000
      0.8540549817D+01  0.8240295858D+00
      0.7606400000D+01  0.7712574142D-01
      0.2757004000D+01  0.1205959480D+00
 S   3 1.00       0.000000000000
      0.1065457804D+01  0.4719265335D+00
      0.8169920000D+00  0.1696219310D+00
      0.3324734675D+00  0.4090460461D+00
 P   4 1.00       0.000000000000
      0.2269663392D+02  0.1142855751D+00
      0.8546200000D+01  0.7636454334D-01
      0.4987233926D+01  0.5177224550D+00
      0.1960299000D+01  0.4203762240D+00
 P   4 1.00       0.000000000000
      0.1349161395D+01  0.4540152741D+00
      0.4757500000D+00  0.3839289813D+00
      0.3482988198D+00  0.2270342858D+00
      0.7931000000D-01  0.7024618551D-01
 D   2 1.00       0.000000000000
      0.5275600000D+01  0.1772036450D+00
      0.1258140000D+01  0.9100145520D+00
 ****
     46 0
 S   3 1.00       0.000000000000
      0.1301070100D+02  0.1350845383D+00
      0.4089700000D+01  0.1046732381D+00
      0.1962257200D+01  0.8188780172D+00
 S   3 1.00       0.000000000000
      0.9658000000D+00  0.4012152577D-01
      0.4445379600D+00  0.4908498301D+00
      0.1219496200D+00  0.5474038217D+00
 P   2 1.00       0.000000000000
      0.2616630000D+01  0.4457696979D-02
      0.4628000000D+00  0.9980669237D+00
 ****
     47 0
 S   3 1.00       0.000000000000
      0.1301070100D+02  0.1350845383D+00
      0.4089700000D+01  0.1046732381D+00
      0.1962257200D+01  0.8188780172D+00
 S   3 1.00       0.000000000000
      0.9658000000D+00  0.4012152577D-01
      0.4445379600D+00  0.4908498301D+00
      0.1219496200D+00  0.5474038217D+00
 P   2 1.00       0.000000000000
      0.2616630000D+01  0.4457696979D-02
      0.4628000000D+00  0.9980669237D+00
 ****
     48 0
 S   3 1.00       0.000000000000
      0.1301070100D+02  0.1350845383D+00
      0.4089700000D+01  0.1046732381D+00
      0.1962257200D+01  0.8188780172D+00
 S   3 1.00       0.000000000000
      0.9658000000D+00  0.4012152577D-01
      0.4445379600D+00  0.4908498301D+00
      0.1219496200D+00  0.5474038217D+00
 P   2 1.00       0.000000000000
      0.2616630000D+01  0.4457696979D-02
      0.4628000000D+00  0.9980669237D+00
 ****
     49 0
 S   3 1.00       0.000000000000
      0.1301070100D+02  0.1350845383D+00
      0.4089700000D+01  0.1046732381D+00
      0.1962257200D+01  0.8188780172D+00
 S   3 1.00       0.000000000000
      0.9658000000D+00  0.4012152577D-01
      0.4445379600D+00  0.4908498301D+00
      0.1219496200D+00  0.5474038217D+00
 P   2 1.00       0.000000000000
      0.2616630000D+01  0.4457696979D-02
      0.4628000000D+00  0.9980669237D+00
 ****
     50 0
 S   4 1.00       0.000000000000
      0.1238401694D+04  0.7318906197D-02
      0.1862900499D+03  0.5498252672D-01
      0.4225117635D+02  0.2564036642D+00
      0.1167655793D+02  0.7670334668D+00
 S   3 1.00       0.000000000000
      0.3623200000D+01  0.5631739920D+00
      0.3593050648D+01  0.3462768717D+00
      0.9874700000D+00  0.1175264830D+00
 S   3 1.00       0.000000000000
      0.4024514736D+00  0.5081361219D+00
      0.3054000000D+00  0.1363424263D+00
      0.1309018267D+00  0.4034013254D+00
 P   4 1.00       0.000000000000
      0.9468097062D+01  0.6604998265D-01
      0.2010354514D+01  0.3341536589D+00
      0.7839000000D+00  0.1857938958D+00
      0.5477100471D+00  0.5468380885D+00
 P   4 1.00       0.000000000000
      0.1973300000D+00  0.4916449123D+00
      0.1526861380D+00  0.2594253970D+00
      0.1016600000D+00  0.2485278029D+00
      0.4302930000D-01  0.3431853038D-01
 D   2 1.00       0.000000000000
      0.2486000000D+01  0.2174551671D+00
      0.1641200000D+00  0.9593044317D+00
 ****
     51 0
 S   4 1.00       0.000000000000
      0.1238401694D+04  0.7318906197D-02
      0.1862900499D+03  0.5498252672D-01
      0.4225117635D+02  0.2564036642D+00
      0.1167655793D+02  0.7670334668D+00
 S   3 1.00       0.000000000000
      0.3623200000D+01  0.5631739920D+00
      0.3593050648D+01  0.3462768717D+00
      0.9874700000D+00  0.1175264830D+00
 S   3 1.00       0.000000000000
      0.4024514736D+00  0.5081361219D+00
      0.3054000000D+00  0.1363424263D+00
      0.1309018267D+00  0.4034013254D+00
[...]
 vector components x,y,z.  Values do not include the 1/n! factor of 1/2.
 (esu units = statvolt**-1 cm**4 , SI units = C**3 m**3 J**-2)
 Beta(0;0,0):
               (au)            (10**-30 esu)      (10**-50 SI)
   || (z)    -0.146114D+03     -0.126231D+01     -0.468493D+00
   _|_(z)    -0.487045D+02     -0.420769D+00     -0.156164D+00
   x          0.110260D+06      0.952561D+03      0.353534D+03
   y         -0.342004D+03     -0.295465D+01     -0.109659D+01
   z         -0.730568D+03     -0.631154D+01     -0.234246D+01
   ||         0.220526D+05      0.190517D+03      0.707086D+02
   xxx        0.348871D+05      0.301397D+03      0.111861D+03
   xxy       -0.103754D+03     -0.896350D+00     -0.332671D+00
   yxy        0.189385D+04      0.163614D+02      0.607238D+01
   yyy       -0.955492D+01     -0.825470D-01     -0.306365D-01
   xxz       -0.146547D+03     -0.126605D+01     -0.469884D+00
   yxz       -0.143497D+02     -0.123970D+00     -0.460104D-01
   yyz       -0.677617D+02     -0.585408D+00     -0.217268D+00
   zxz       -0.275528D+02     -0.238035D+00     -0.883442D-01
   zyz       -0.692808D+00     -0.598532D-02     -0.222139D-02
   zzz       -0.292135D+02     -0.252382D+00     -0.936692D-01
 Beta(-w;w,0) w= 1907.0nm:
                  (au)         (10**-30 esu)      (10**-50 SI)
   || (z)    -0.129728D+03     -0.112075D+01     -0.415954D+00
   _|_(z)    -0.322565D+02     -0.278671D+00     -0.103426D+00
   x          0.992775D+05      0.857680D+03      0.318319D+03
   y         -0.311205D+03     -0.268857D+01     -0.997837D+00
   z         -0.648639D+03     -0.560374D+01     -0.207977D+01
   ||         0.198560D+05      0.171540D+03      0.636655D+02
   xxx        0.311723D+05      0.269304D+03      0.999496D+02
   yxx       -0.903400D+02     -0.780468D+00     -0.289663D+00
   yyx        0.170054D+04      0.146913D+02      0.545254D+01
   zxx       -0.158263D+03     -0.136727D+01     -0.507450D+00
   zyx       -0.960967D+01     -0.830201D-01     -0.308121D-01
   zzx        0.230115D+02      0.198801D+00      0.737831D-01
   xxy       -0.899619D+02     -0.777201D+00     -0.288450D+00
   yxy        0.201764D+04      0.174309D+02      0.646929D+01
   yyy       -0.127348D+02     -0.110019D+00     -0.408324D-01
   zxy       -0.834094D+01     -0.720592D-01     -0.267441D-01
   zyy       -0.555161D+02     -0.479616D+00     -0.178005D+00
   zzy       -0.852188D+00     -0.736224D-02     -0.273242D-02
   xxz       -0.133569D+03     -0.115393D+01     -0.428270D+00
   yxz       -0.829365D+01     -0.716507D-01     -0.265924D-01
   yyz       -0.472523D+02     -0.408223D+00     -0.151508D+00
   zxz        0.882747D+00      0.762624D-02      0.283040D-02
   zyz       -0.753430D+00     -0.650905D-02     -0.241577D-02
   zzz       -0.134197D+02     -0.115935D+00     -0.430283D-01
 Beta(-2w;w,w) w= 1907.0nm:
                  (au)         (10**-30 esu)      (10**-50 SI)
   || (z)    -0.161893D+03     -0.139863D+01     -0.519087D+00
   _|_(z)    -0.608948D+02     -0.526083D+00     -0.195251D+00
   x          0.134060D+06      0.115818D+04      0.429846D+03
   y         -0.433610D+03     -0.374605D+01     -0.139031D+01
   z         -0.809464D+03     -0.699314D+01     -0.259543D+01
   ||         0.268127D+05      0.231641D+03      0.859713D+02
   xxx        0.416142D+05      0.359514D+03      0.133430D+03
   yxx       -0.118996D+03     -0.102804D+01     -0.381546D+00
   zxx       -0.218703D+03     -0.188943D+01     -0.701242D+00
   xyx       -0.117244D+03     -0.101289D+01     -0.375926D+00
   yyx        0.293987D+04      0.253982D+02      0.942629D+01
   zyx       -0.306693D+01     -0.264959D-01     -0.983369D-02
   xyy        0.331210D+04      0.286140D+02      0.106198D+02
   yyy       -0.259115D+02     -0.223855D+00     -0.830816D-01
   zyy       -0.555177D+02     -0.479629D+00     -0.178010D+00
   xzx       -0.202334D+03     -0.174801D+01     -0.648757D+00
   yzx       -0.344989D+01     -0.298043D-01     -0.110616D-01
   zzx        0.125312D+02      0.108260D+00      0.401795D-01
   xzy       -0.270268D+01     -0.233491D-01     -0.866577D-02
   yzy       -0.510951D+02     -0.441422D+00     -0.163829D+00
   zzy       -0.805855D+00     -0.696196D-02     -0.258386D-02
   xzz        0.997505D+00      0.861766D-02      0.319836D-02
   yzz       -0.780238D+00     -0.674064D-02     -0.250172D-02
   zzz       -0.946124D+01     -0.817377D-01     -0.303362D-01

 ----------------------------------------------------------------------

 Dipole orientation:
    78          0.20901383          0.00635744          1.89404724
     6         -0.03114756         -0.00016511         -1.97150788
     7          0.23886011         -3.82198438          2.56669855
     7          0.26354451          3.83684927          2.55632035
     6          0.19164628          5.62676827          0.76263687
     6          0.15116475         -5.61537612          0.77721022
     6          0.38992378          4.51077502          5.07759898
     6          0.36975115         -4.49084538          5.08897339
     6          0.45719030         -2.33589227          6.82743828
     6          0.46652825          2.35981467          6.82144366
     6          0.60251509          2.29730725          9.46913507
     6          0.43360148          7.07457231          5.74739404
     6          0.35697924          8.92381133          3.88395158
     6          0.23774120          8.19181521          1.34295971
     6          0.59401069         -2.26701021          9.47490400
     6          0.66612334          0.01671072         10.79897793
     6          0.41503235         -7.05356616          5.76346911
     6          0.32714018         -8.90645329          3.90408459
     1          0.52391488         -7.56604476          7.75229769
     6          0.18977874         -8.17916383          1.36258076
     6          0.39677782          0.01055903          5.57746253
     9          0.66215166         -4.41157668         10.82160240
     9          0.67810266          4.44507173         10.81043335
     1          0.05319487         -4.93714241         -1.16613276
     6          0.03730814        -10.13845186         -0.69774906
     1          0.37086134        -10.90091485          4.43041049
     1          0.08829669          4.94491630         -1.17924019
     6          0.20879787         10.14743889         -0.72641779
     1          0.52579185          7.59049500          7.73613577
     1          0.38319560         10.91927008          4.40717908
     6         -0.25774954         -0.00769318         -4.29747748
     6         -0.55246276         -0.01631409         -6.98515156
     6         -0.75785272          2.25145528         -8.38418874
     6         -0.67625318         -2.29319029         -8.37907139
     6         -1.07495006          2.25778675        -10.99252983
     6         -0.99208718         -2.31668056        -10.98750680
     6         -1.20771363         -0.03411806        -12.38676191
     7         -1.53152222         -0.04275929        -14.96929670
     1          0.77307676          0.01909084         12.85613330
     9         -1.50059938         11.96795505         -0.25347387
     9         -0.34771245          9.14004105         -2.98794334
     9          2.46498116         11.30286184         -0.94833575
     9          0.31173561         -9.12263862         -3.00686653
     9         -2.19958052        -11.35050534         -0.66536568
     9          1.83449565        -11.91455653         -0.42092159
     1         -0.67028408          4.05708759         -7.38409867
     1         -1.22455112          4.07032090        -11.95740170
     1         -1.07490484         -4.13547361        -11.94874607
     1         -0.52301299         -4.09226832         -7.37507935
     6         -1.75433364          2.32315918        -16.33678706
     6         -1.66799078         -2.41819407        -16.33166006
     1         -0.05461759          3.51855884        -16.12405422
     1         -3.39594595          3.44888319        -15.70231579
     1         -2.00084526          1.92859267        -18.35647504
     1         -3.26415975         -3.60358100        -15.69022611
     1          0.07630602         -3.54811211        -16.12126723
     1         -1.93463165         -2.03739058        -18.35144277

 Electric dipole moment (dipole orientation):
 (Debye = 10**-18 statcoulomb cm , SI units = C m)
                  (au)            (Debye)         (10**-30 SI)
   Tot        0.180443D+01      0.458640D+01      0.152986D+02
   x          0.000000D+00      0.000000D+00      0.000000D+00
   y          0.000000D+00      0.000000D+00      0.000000D+00
   z          0.180443D+01      0.458640D+01      0.152986D+02

 Dipole polarizability, Alpha (dipole orientation).
 (esu units = cm**3 , SI units = C**2 m**2 J**-1)
 Alpha(0;0):
               (au)            (10**-24 esu)      (10**-40 SI)
   iso        0.606978D+03      0.899449D+02      0.100077D+03
   aniso      0.551839D+03      0.817741D+02      0.909860D+02
   xx         0.260158D+03      0.385515D+02      0.428943D+02
   yx         0.169783D+00      0.251592D-01      0.279934D-01
   yy         0.686894D+03      0.101787D+03      0.113254D+03
   zx         0.505350D+02      0.748851D+01      0.833209D+01
   zy         0.818889D+00      0.121347D+00      0.135017D+00
   zz         0.873883D+03      0.129496D+03      0.144084D+03

 Dipole polarizability, Alpha (dipole orientation).
 (esu units = cm**3 , SI units = C**2 m**2 J**-1)
 Alpha(0;0):
               (au)            (10**-24 esu)      (10**-40 SI)
   iso        0.606978D+03      0.899449D+02      0.100077D+03
   aniso      0.551839D+03      0.817741D+02      0.909860D+02
   xx         0.260158D+03      0.385515D+02      0.428943D+02
   yx         0.169783D+00      0.251592D-01      0.279934D-01
   yy         0.686894D+03      0.101787D+03      0.113254D+03
   zx         0.505350D+02      0.748851D+01      0.833209D+01
   zy         0.818889D+00      0.121347D+00      0.135017D+00
   zz         0.873883D+03      0.129496D+03      0.144084D+03
 Alpha(-w;w) w= 1907.0nm:
                  (au)         (10**-24 esu)      (10**-40 SI)
   iso        0.508335D+03      0.753275D+02      0.838131D+02
   aniso      0.503046D+03      0.745437D+02      0.829410D+02
   xx         0.195767D+03      0.290097D+02      0.322776D+02
   yx         0.406943D+00      0.603027D-01      0.670959D-01
   yy         0.570422D+03      0.845279D+02      0.940499D+02
   zx         0.469433D+02      0.695629D+01      0.773991D+01
   zy         0.809117D+00      0.119899D+00      0.133405D+00
   zz         0.758816D+03      0.112445D+03      0.125112D+03

 First dipole hyperpolarizability, Beta (dipole orientation).
 ||, _|_  parallel and perpendicular components, (z) with respect to z axis,
 vector components x,y,z.  Values do not include the 1/n! factor of 1/2.
 (esu units = statvolt**-1 cm**4 , SI units = C**3 m**3 J**-2)
 Beta(0;0,0):
               (au)            (10**-30 esu)      (10**-50 SI)
   || (z)     0.219569D+05      0.189690D+03      0.704017D+02
   _|_(z)     0.731896D+04      0.632302D+02      0.234672D+02
   x          0.102572D+05      0.886145D+02      0.328884D+02
   y          0.317431D+03      0.274236D+01      0.101780D+01
   z          0.109784D+06      0.948452D+03      0.352009D+03
   ||         0.220526D+05      0.190517D+03      0.707086D+02
   xxx        0.476464D+02      0.411628D+00      0.152772D+00
   xxy        0.518607D+01      0.448036D-01      0.166284D-01
   yxy        0.231452D+03      0.199956D+01      0.742118D+00
   yyy        0.233273D+02      0.201530D+00      0.747958D-01
   xxz        0.255544D+03      0.220770D+01      0.819365D+00
   yxz        0.341608D+02      0.295122D+00      0.109532D+00
   yyz        0.188044D+04      0.162456D+02      0.602938D+01
   zxz        0.313998D+04      0.271270D+02      0.100679D+02
   zyz        0.772970D+02      0.667786D+00      0.247842D+00
   zzz        0.344588D+05      0.297697D+03      0.110487D+03

 First dipole hyperpolarizability, Beta (dipole orientation).
 ||, _|_  parallel and perpendicular components, (z) with respect to z axis,
 vector components x,y,z.  Values do not include the 1/n! factor of 1/2.
 (esu units = statvolt**-1 cm**4 , SI units = C**3 m**3 J**-2)
 Beta(0;0,0):
               (au)            (10**-30 esu)      (10**-50 SI)
   || (z)     0.219569D+05      0.189690D+03      0.704017D+02
   _|_(z)     0.731896D+04      0.632302D+02      0.234672D+02
   x          0.102572D+05      0.886145D+02      0.328884D+02
   y          0.317431D+03      0.274236D+01      0.101780D+01
   z          0.109784D+06      0.948452D+03      0.352009D+03
   ||         0.220526D+05      0.190517D+03      0.707086D+02
   xxx        0.476464D+02      0.411628D+00      0.152772D+00
   xxy        0.518607D+01      0.448036D-01      0.166284D-01
   yxy        0.231452D+03      0.199956D+01      0.742118D+00
   yyy        0.233273D+02      0.201530D+00      0.747958D-01
   xxz        0.255544D+03      0.220770D+01      0.819365D+00
   yxz        0.341608D+02      0.295122D+00      0.109532D+00
   yyz        0.188044D+04      0.162456D+02      0.602938D+01
   zxz        0.313998D+04      0.271270D+02      0.100679D+02
   zyz        0.772970D+02      0.667786D+00      0.247842D+00
   zzz        0.344588D+05      0.297697D+03      0.110487D+03
 Beta(-w;w,0) w= 1907.0nm:
                  (au)         (10**-30 esu)      (10**-50 SI)
   || (z)     0.197700D+05      0.170797D+03      0.633898D+02
   _|_(z)     0.649299D+04      0.560944D+02      0.208189D+02
   x          0.922640D+04      0.797089D+02      0.295832D+02
   y          0.282606D+03      0.244149D+01      0.906136D+00
   z          0.988500D+05      0.853987D+03      0.316949D+03
   ||         0.198560D+05      0.171540D+03      0.636655D+02
   xxx        0.389070D+02      0.336126D+00      0.124750D+00
   yxx        0.412308D+01      0.356202D-01      0.132201D-01
   yyx        0.194234D+03      0.167803D+01      0.622786D+00
   zxx        0.256609D+03      0.221690D+01      0.822782D+00
   zyx        0.281218D+02      0.242951D+00      0.901688D-01
   zzx        0.280344D+04      0.242195D+02      0.898883D+01
   xxy        0.429630D+01      0.371167D-01      0.137755D-01
   yxy        0.229876D+03      0.198595D+01      0.737065D+00
   yyy        0.207723D+02      0.179456D+00      0.666034D-01
   zxy        0.281342D+02      0.243058D+00      0.902085D-01
   zyy        0.200495D+04      0.173212D+02      0.642860D+01
   zzy        0.682793D+02      0.589880D+00      0.218928D+00
   xxz        0.280792D+03      0.242583D+01      0.900321D+00
   yxz        0.273082D+02      0.235922D+00      0.875600D-01
   yyz        0.168975D+04      0.145981D+02      0.541794D+01
   zxz        0.282613D+04      0.244155D+02      0.906158D+01
   zyz        0.697336D+02      0.602444D+00      0.223591D+00
   zzz        0.307854D+05      0.265962D+03      0.987093D+02
 Beta(-2w;w,w) w= 1907.0nm:
                  (au)         (10**-30 esu)      (10**-50 SI)
   || (z)     0.266978D+05      0.230648D+03      0.856028D+02
   _|_(z)     0.901846D+04      0.779124D+02      0.289164D+02
   x          0.123927D+05      0.107063D+03      0.397355D+02
   y          0.368687D+03      0.318516D+01      0.118214D+01
   z          0.133489D+06      0.115324D+04      0.428014D+03
   ||         0.268127D+05      0.231641D+03      0.859713D+02
   xxx        0.431277D+02      0.372590D+00      0.138283D+00
   yxx        0.460763D+01      0.398063D-01      0.147737D-01
   zxx        0.344385D+03      0.297521D+01      0.110422D+01
   xyx        0.480309D+01      0.414949D-01      0.154004D-01
   yyx        0.305140D+03      0.263618D+01      0.978390D+00
   zyx        0.331400D+02      0.286304D+00      0.106259D+00
   xyy        0.341710D+03      0.295210D+01      0.109564D+01
   yyy        0.284194D+02      0.245521D+00      0.911228D-01
   zyy        0.329457D+04      0.284625D+02      0.105636D+02
   xzx        0.357281D+03      0.308663D+01      0.114557D+01
   yzx        0.314162D+02      0.271412D+00      0.100732D+00
   zzx        0.376534D+04      0.325296D+02      0.120730D+02
   xzy        0.310552D+02      0.268292D+00      0.995741D-01
   yzy        0.292412D+04      0.252621D+02      0.937577D+01
   zzy        0.895700D+02      0.773815D+00      0.287194D+00
   xzz        0.378065D+04      0.326619D+02      0.121221D+02
   yzz        0.900746D+02      0.778175D+00      0.288812D+00
   zzz        0.410958D+05      0.355035D+03      0.131768D+03

 ----------------------------------------------------------------------
 Unable to Open any file for archive entry.
 1\1\GINC-NQTCM09\SP\RB3LYP\Gen\C28H17F8N3Pt1\NQTCM\30-Jul-2024\0\\#p B
 3LYP/gen gfinput pseudo=read Integral(Grid=UltraFine,Acc2E=12) scf=max
 cycle=200 Polar=(DCSHG) CPHF=RdFreq scrf=(iefpcm,read,solvent=n,n-DiMe
 thylFormamide)\\Primeira Hiperpolarizabilidade\\0,1\Pt,0,1.008098,-0.0
 02554,-0.023564\C,0,-1.040778,0.006667,-0.073725\N,0,1.351872,-2.03058
 8,-0.021851\N,0,1.371945,2.022246,-0.008714\C,0,0.428756,2.975399,-0.0
 46602\C,0,0.398749,-2.973631,-0.063676\C,0,2.709059,2.370496,0.042286\
 C,0,2.685437,-2.392871,0.022148\C,0,3.612802,-1.258329,0.063032\C,0,3.
 625038,1.226484,0.074159\C,0,5.026887,1.184637,0.123314\C,0,3.072337,3
 .724956,0.058798\C,0,2.092345,4.709726,0.020417\C,0,0.74498,4.330839,-
 0.035451\C,0,5.014989,-1.230647,0.112194\C,0,5.723602,-0.026575,0.1426
 58\C,0,3.034924,-3.751151,0.020208\C,0,2.044754,-4.725434,-0.024916\H,
 0,4.086755,-4.028899,0.051962\C,0,0.700942,-4.332187,-0.06618\C,0,2.95
 8548,-0.012537,0.045884\F,0,5.721231,-2.369922,0.130392\F,0,5.744306,2
 .316718,0.152261\H,0,-0.628075,-2.608296,-0.098527\C,0,-0.398457,-5.36
 228,-0.086817\H,0,2.317868,-5.782506,-0.030833\H,0,-0.601877,2.621014,
 -0.083278\C,0,-0.341058,5.372771,-0.108014\H,0,4.126637,3.99134,0.1029
 23\H,0,2.375744,5.7639,0.037457\C,0,-2.277388,0.010047,-0.060642\C,0,-
 3.707803,0.013889,-0.028194\C,0,-4.447523,1.218102,0.023999\C,0,-4.455
 58,-1.186483,-0.034584\C,0,-5.837091,1.229509,0.071927\C,0,-5.845235,-
 1.190852,0.01257\C,0,-6.585491,0.021157,0.070201\N,0,-7.961809,0.02453
 ,0.122795\H,0,6.813007,-0.032126,0.180343\F,0,-0.164121,6.329015,0.821
 111\F,0,-1.561973,4.845788,0.078463\F,0,-0.351158,5.992134,-1.303574\F
 ,0,-1.600001,-4.815854,-0.333542\F,0,-0.487575,-6.010889,1.089708\F,0,
 -0.175967,-6.29735,-1.027787\H,0,-3.910527,2.170366,0.029839\H,0,-6.34
 6824,2.1915,0.112978\H,0,-6.361574,-2.1502,0.005956\H,0,-3.925014,-2.1
 41478,-0.075718\C,0,-8.685382,1.280514,0.185956\C,0,-8.693844,-1.22814
 5,0.124189\H,0,-8.491668,1.917746,-0.696229\H,0,-8.422404,1.868759,1.0
 84316\H,0,-9.762669,1.077962,0.222194\H,0,-8.432484,-1.862718,0.990876
 \H,0,-8.506737,-1.821219,-0.789689\H,0,-9.76963,-1.020469,0.17373\\Ver
 sion=EM64L-G16RevC.01\State=1-A\HF=-2156.5960529\RMSD=5.345e-09\Dipole
 =1.7976426,-0.0118539,0.1559129\Polar=878.0040284,-0.3409898,686.87396
 37,3.0735133,2.7135266,256.057191\HyperPolar=34887.0663685,-103.753554
 4,1893.8547483,-9.554917,-146.5473516,-14.3497204,-67.7616653,-27.5527
 863,-0.6928077,-29.2135449\Quadrupole=29.883779,-0.7964787,-29.0873003
 ,-0.0781419,-0.7709701,0.6038727\PG=C01 [X(C28H17F8N3Pt1)]\\@
 The archive entry for this job was punched.


 ON INDUCTION, OR "WHY DO YOU BELIEVE THE SUN WILL RISE TOMORROW?":

 ... THE FARMER WHO HAS FED THE CHICKEN EVERY DAY THROUGHOUT ITS
 LIFE AT LAST WRINGS ITS NECK INSTEAD, SHOWING THAT MORE REFINED VIEWS
 AS TO THE UNIFORMITY OF NATURE WOULD HAVE BEEN USEFUL TO THE CHICKEN.

                               -- BERTRAND RUSSELL
 Job cpu time:       0 days 20 hours 11 minutes 51.3 seconds.
 Elapsed time:       0 days  2 hours 31 minutes 32.2 seconds.
 File lengths (MBytes):  RWF=   4006 Int=      0 D2E=      0 Chk=     32 Scr=      1
 Normal termination of Gaussian 16 at Tue Jul 30 15:01:26 2024.
