 Entering Gaussian System, Link 0=g09
 Input=PBE0.com
 Output=PBE0.log
 Initial command:
 /home/scr/programs/g09/l1.exe "/home/scr/guest/Gau-27871.inp" -scrdir="/home/scr/guest/"
 Entering Link 1 = /home/scr/programs/g09/l1.exe PID=     27872.
  
 Copyright (c) 1988,1990,1992,1993,1995,1998,2003,2009,2013,
            Gaussian, Inc.  All Rights Reserved.
  
 This is part of the Gaussian(R) 09 program.  It is based on
 the Gaussian(R) 03 system (copyright 2003, Gaussian, Inc.),
 the Gaussian(R) 98 system (copyright 1998, Gaussian, Inc.),
 the Gaussian(R) 94 system (copyright 1995, Gaussian, Inc.),
 the Gaussian 92(TM) system (copyright 1992, Gaussian, Inc.),
 the Gaussian 90(TM) system (copyright 1990, Gaussian, Inc.),
 the Gaussian 88(TM) system (copyright 1988, Gaussian, Inc.),
 the Gaussian 86(TM) system (copyright 1986, Carnegie Mellon
 University), and the Gaussian 82(TM) system (copyright 1983,
 Carnegie Mellon University). Gaussian is a federally registered
 trademark of Gaussian, Inc.
  
 This software contains proprietary and confidential information,
 including trade secrets, belonging to Gaussian, Inc.
  
 This software is provided under written license and may be
 used, copied, transmitted, or stored only in accord with that
 written license.
  
 The following legend is applicable only to US Government
 contracts under FAR:
  
                    RESTRICTED RIGHTS LEGEND
  
 Use, reproduction and disclosure by the US Government is
 subject to restrictions as set forth in subparagraphs (a)
 and (c) of the Commercial Computer Software - Restricted
 Rights clause in FAR 52.227-19.
  
 Gaussian, Inc.
 340 Quinnipiac St., Bldg. 40, Wallingford CT 06492
  
  
 ---------------------------------------------------------------
 Warning -- This program may not be used in any manner that
 competes with the business of Gaussian, Inc. or will provide
 assistance to any competitor of Gaussian, Inc.  The licensee
 of this program is prohibited from giving any competitor of
 Gaussian, Inc. access to this program.  By using this program,
 the user acknowledges that Gaussian, Inc. is engaged in the
 business of creating and licensing software in the field of
 computational chemistry and represents and warrants to the
 licensee that it is not a competitor of Gaussian, Inc. and that
 it will not use this program in any manner prohibited above.
 ---------------------------------------------------------------
  

 Cite this work as:
 Gaussian 09, Revision D.01,
 M. J. Frisch, G. W. Trucks, H. B. Schlegel, G. E. Scuseria, 
 M. A. Robb, J. R. Cheeseman, G. Scalmani, V. Barone, B. Mennucci, 
 G. A. Petersson, H. Nakatsuji, M. Caricato, X. Li, H. P. Hratchian, 
 A. F. Izmaylov, J. Bloino, G. Zheng, J. L. Sonnenberg, M. Hada, 
 M. Ehara, K. Toyota, R. Fukuda, J. Hasegawa, M. Ishida, T. Nakajima, 
 Y. Honda, O. Kitao, H. Nakai, T. Vreven, J. A. Montgomery, Jr., 
 J. E. Peralta, F. Ogliaro, M. Bearpark, J. J. Heyd, E. Brothers, 
 K. N. Kudin, V. N. Staroverov, T. Keith, R. Kobayashi, J. Normand, 
 K. Raghavachari, A. Rendell, J. C. Burant, S. S. Iyengar, J. Tomasi, 
 M. Cossi, N. Rega, J. M. Millam, M. Klene, J. E. Knox, J. B. Cross, 
 V. Bakken, C. Adamo, J. Jaramillo, R. Gomperts, R. E. Stratmann, 
 O. Yazyev, A. J. Austin, R. Cammi, C. Pomelli, J. W. Ochterski, 
 R. L. Martin, K. Morokuma, V. G. Zakrzewski, G. A. Voth, 
 P. Salvador, J. J. Dannenberg, S. Dapprich, A. D. Daniels, 
 O. Farkas, J. B. Foresman, J. V. Ortiz, J. Cioslowski, 
 and D. J. Fox, Gaussian, Inc., Wallingford CT, 2013.
 
 ******************************************
 Gaussian 09:  EM64L-G09RevD.01 24-Apr-2013
                 4-Feb-2023 
 ******************************************
 %chk=PBE1PBE.chk
 %mem=100Gb
 %nproc=32
 Will use up to   32 processors via shared memory.
 ----------------------------------------------------------------------
 #p PBE1PBE/gen gfinput pseudo=read Integral(Grid=UltraFine,Acc2E=12) s
 cf=maxcycle=200 Polar=(DCSHG) CPHF=RdFreq scrf=(iefpcm,read,solvent=n,
 n-DiMethylFormamide)
 ----------------------------------------------------------------------
 1/38=1,40=2,83=1/1;
 2/12=2,17=6,18=5,40=1/2;
 3/5=7,11=2,16=1,17=8,24=10,25=1,30=1,70=2203,72=148,74=-13,75=-5/1,2,3;
 4//1;
 5/5=2,7=200,38=5,53=148,87=12,98=1/2;
 8/6=4,10=90,11=11,87=12/1;
 10/6=20001,13=10,72=3,87=12/2;
 6/7=2,8=2,9=2,10=2,28=1/1;
 99/5=1,9=1/99;
 Leave Link    1 at Sat Feb  4 06:29:14 2023, MaxMem= 13421772800 cpu:         8.7
 (Enter /home/scr/programs/g09/l101.exe)
 ------------------------------
 Primeira Hiperpolarizabilidade
 ------------------------------
 Symbolic Z-matrix:
 Charge =  0 Multiplicity = 1
 Pt                    1.0081   -0.00255  -0.02356 
 C                    -1.04078   0.00667  -0.07373 
 N                     1.35187  -2.03059  -0.02185 
 N                     1.37195   2.02225  -0.00871 
 C                     0.42876   2.9754   -0.0466 
 C                     0.39875  -2.97363  -0.06368 
 C                     2.70906   2.3705    0.04229 
 C                     2.68544  -2.39287   0.02215 
 C                     3.6128   -1.25833   0.06303 
 C                     3.62504   1.22648   0.07416 
 C                     5.02689   1.18464   0.12331 
 C                     3.07234   3.72496   0.0588 
 C                     2.09234   4.70973   0.02042 
 C                     0.74498   4.33084  -0.03545 
 C                     5.01499  -1.23065   0.11219 
 C                     5.7236   -0.02658   0.14266 
 C                     3.03492  -3.75115   0.02021 
 C                     2.04475  -4.72543  -0.02492 
 H                     4.08676  -4.0289    0.05196 
 C                     0.70094  -4.33219  -0.06618 
 C                     2.95855  -0.01254   0.04588 
 F                     5.72123  -2.36992   0.13039 
 F                     5.74431   2.31672   0.15226 
 H                    -0.62808  -2.6083   -0.09853 
 C                    -0.39846  -5.36228  -0.08682 
 H                     2.31787  -5.78251  -0.03083 
 H                    -0.60188   2.62101  -0.08328 
 C                    -0.34106   5.37277  -0.10801 
 H                     4.12664   3.99134   0.10292 
 H                     2.37574   5.7639    0.03746 
 C                    -2.27739   0.01005  -0.06064 
 C                    -3.7078    0.01389  -0.02819 
 C                    -4.44752   1.2181    0.024 
 C                    -4.45558  -1.18648  -0.03458 
 C                    -5.83709   1.22951   0.07193 
 C                    -5.84524  -1.19085   0.01257 
 C                    -6.58549   0.02116   0.0702 
 N                    -7.96181   0.02453   0.1228 
 H                     6.81301  -0.03213   0.18034 
 F                    -0.16412   6.32902   0.82111 
 F                    -1.56197   4.84579   0.07846 
 F                    -0.35116   5.99213  -1.30357 
 F                    -1.6      -4.81585  -0.33354 
 F                    -0.48758  -6.01089   1.08971 
 F                    -0.17597  -6.29735  -1.02779 
 H                    -3.91053   2.17037   0.02984 
 H                    -6.34682   2.1915    0.11298 
 H                    -6.36157  -2.1502    0.00596 
 H                    -3.92501  -2.14148  -0.07572 
 C                    -8.68538   1.28051   0.18596 
 C                    -8.69384  -1.22815   0.12419 
 H                    -8.49167   1.91775  -0.69623 
 H                    -8.4224    1.86876   1.08432 
 H                    -9.76267   1.07796   0.22219 
 H                    -8.43248  -1.86272   0.99088 
 H                    -8.50674  -1.82122  -0.78969 
 H                    -9.76963  -1.02047   0.17373 
 
 NAtoms=     57 NQM=       57 NQMF=       0 NMMI=      0 NMMIF=      0
                NMic=       0 NMicF=      0.
                    Isotopes and Nuclear Properties:
 (Nuclear quadrupole moments (NQMom) in fm**2, nuclear magnetic moments (NMagM)
  in nuclear magnetons)

  Atom         1           2           3           4           5           6           7           8           9          10
 IAtWgt=         195          12          14          14          12          12          12          12          12          12
 AtmWgt= 194.9648000  12.0000000  14.0030740  14.0030740  12.0000000  12.0000000  12.0000000  12.0000000  12.0000000  12.0000000
 NucSpn=           1           0           2           2           0           0           0           0           0           0
 AtZEff=   0.0000000   0.0000000   0.0000000   0.0000000   0.0000000   0.0000000   0.0000000   0.0000000   0.0000000   0.0000000
 NQMom=    0.0000000   0.0000000   2.0440000   2.0440000   0.0000000   0.0000000   0.0000000   0.0000000   0.0000000   0.0000000
 NMagM=    0.6095000   0.0000000   0.4037610   0.4037610   0.0000000   0.0000000   0.0000000   0.0000000   0.0000000   0.0000000
 AtZNuc=  78.0000000   6.0000000   7.0000000   7.0000000   6.0000000   6.0000000   6.0000000   6.0000000   6.0000000   6.0000000

  Atom        11          12          13          14          15          16          17          18          19          20
 IAtWgt=          12          12          12          12          12          12          12          12           1          12
 AtmWgt=  12.0000000  12.0000000  12.0000000  12.0000000  12.0000000  12.0000000  12.0000000  12.0000000   1.0078250  12.0000000
 NucSpn=           0           0           0           0           0           0           0           0           1           0
 AtZEff=   0.0000000   0.0000000   0.0000000   0.0000000   0.0000000   0.0000000   0.0000000   0.0000000   0.0000000   0.0000000
 NQMom=    0.0000000   0.0000000   0.0000000   0.0000000   0.0000000   0.0000000   0.0000000   0.0000000   0.0000000   0.0000000
 NMagM=    0.0000000   0.0000000   0.0000000   0.0000000   0.0000000   0.0000000   0.0000000   0.0000000   2.7928460   0.0000000
 AtZNuc=   6.0000000   6.0000000   6.0000000   6.0000000   6.0000000   6.0000000   6.0000000   6.0000000   1.0000000   6.0000000

  Atom        21          22          23          24          25          26          27          28          29          30
 IAtWgt=          12          19          19           1          12           1           1          12           1           1
 AtmWgt=  12.0000000  18.9984033  18.9984033   1.0078250  12.0000000   1.0078250   1.0078250  12.0000000   1.0078250   1.0078250
 NucSpn=           0           1           1           1           0           1           1           0           1           1
 AtZEff=   0.0000000   0.0000000   0.0000000   0.0000000   0.0000000   0.0000000   0.0000000   0.0000000   0.0000000   0.0000000
 NQMom=    0.0000000   0.0000000   0.0000000   0.0000000   0.0000000   0.0000000   0.0000000   0.0000000   0.0000000   0.0000000
 NMagM=    0.0000000   2.6288670   2.6288670   2.7928460   0.0000000   2.7928460   2.7928460   0.0000000   2.7928460   2.7928460
 AtZNuc=   6.0000000   9.0000000   9.0000000   1.0000000   6.0000000   1.0000000   1.0000000   6.0000000   1.0000000   1.0000000

  Atom        31          32          33          34          35          36          37          38          39          40
 IAtWgt=          12          12          12          12          12          12          12          14           1          19
 AtmWgt=  12.0000000  12.0000000  12.0000000  12.0000000  12.0000000  12.0000000  12.0000000  14.0030740   1.0078250  18.9984033
 NucSpn=           0           0           0           0           0           0           0           2           1           1
 AtZEff=   0.0000000   0.0000000   0.0000000   0.0000000   0.0000000   0.0000000   0.0000000   0.0000000   0.0000000   0.0000000
 NQMom=    0.0000000   0.0000000   0.0000000   0.0000000   0.0000000   0.0000000   0.0000000   2.0440000   0.0000000   0.0000000
 NMagM=    0.0000000   0.0000000   0.0000000   0.0000000   0.0000000   0.0000000   0.0000000   0.4037610   2.7928460   2.6288670
 AtZNuc=   6.0000000   6.0000000   6.0000000   6.0000000   6.0000000   6.0000000   6.0000000   7.0000000   1.0000000   9.0000000

  Atom        41          42          43          44          45          46          47          48          49          50
 IAtWgt=          19          19          19          19          19           1           1           1           1          12
 AtmWgt=  18.9984033  18.9984033  18.9984033  18.9984033  18.9984033   1.0078250   1.0078250   1.0078250   1.0078250  12.0000000
 NucSpn=           1           1           1           1           1           1           1           1           1           0
 AtZEff=   0.0000000   0.0000000   0.0000000   0.0000000   0.0000000   0.0000000   0.0000000   0.0000000   0.0000000   0.0000000
 NQMom=    0.0000000   0.0000000   0.0000000   0.0000000   0.0000000   0.0000000   0.0000000   0.0000000   0.0000000   0.0000000
 NMagM=    2.6288670   2.6288670   2.6288670   2.6288670   2.6288670   2.7928460   2.7928460   2.7928460   2.7928460   0.0000000
 AtZNuc=   9.0000000   9.0000000   9.0000000   9.0000000   9.0000000   1.0000000   1.0000000   1.0000000   1.0000000   6.0000000

  Atom        51          52          53          54          55          56          57
 IAtWgt=          12           1           1           1           1           1           1
 AtmWgt=  12.0000000   1.0078250   1.0078250   1.0078250   1.0078250   1.0078250   1.0078250
 NucSpn=           0           1           1           1           1           1           1
 AtZEff=   0.0000000   0.0000000   0.0000000   0.0000000   0.0000000   0.0000000   0.0000000
 NQMom=    0.0000000   0.0000000   0.0000000   0.0000000   0.0000000   0.0000000   0.0000000
 NMagM=    0.0000000   2.7928460   2.7928460   2.7928460   2.7928460   2.7928460   2.7928460
 AtZNuc=   6.0000000   1.0000000   1.0000000   1.0000000   1.0000000   1.0000000   1.0000000
 Using perturbation frequencies:    0.000000    0.023893
 Leave Link  101 at Sat Feb  4 06:29:14 2023, MaxMem= 13421772800 cpu:         5.7
 (Enter /home/scr/programs/g09/l202.exe)
 Stoichiometry    C28H17F8N3Pt
 Framework group  C1[X(C28H17F8N3Pt)]
 Deg. of freedom   165
 Full point group                 C1      NOp   1
 Largest Abelian subgroup         C1      NOp   1
 Largest concise Abelian subgroup C1      NOp   1
                         Standard orientation:                         
 ---------------------------------------------------------------------
 Center     Atomic      Atomic             Coordinates (Angstroms)
 Number     Number       Type             X           Y           Z
 ---------------------------------------------------------------------
      1         78           0       -1.008098   -0.002554    0.023564
      2          6           0        1.040778    0.006667    0.073725
      3          7           0       -1.351872   -2.030588    0.021851
      4          7           0       -1.371945    2.022246    0.008714
      5          6           0       -0.428755    2.975399    0.046602
      6          6           0       -0.398749   -2.973631    0.063676
      7          6           0       -2.709059    2.370497   -0.042286
      8          6           0       -2.685437   -2.392870   -0.022148
      9          6           0       -3.612802   -1.258328   -0.063032
     10          6           0       -3.625038    1.226485   -0.074159
     11          6           0       -5.026887    1.184638   -0.123314
     12          6           0       -3.072336    3.724957   -0.058798
     13          6           0       -2.092344    4.709726   -0.020417
     14          6           0       -0.744979    4.330839    0.035451
     15          6           0       -5.014989   -1.230646   -0.112194
     16          6           0       -5.723602   -0.026574   -0.142658
     17          6           0       -3.034925   -3.751150   -0.020208
     18          6           0       -2.044755   -4.725434    0.024916
     19          1           0       -4.086756   -4.028898   -0.051962
     20          6           0       -0.700943   -4.332187    0.066180
     21          6           0       -2.958548   -0.012536   -0.045884
     22          9           0       -5.721231   -2.369921   -0.130392
     23          9           0       -5.744306    2.316719   -0.152261
     24          1           0        0.628075   -2.608296    0.098527
     25          6           0        0.398456   -5.362280    0.086817
     26          1           0       -2.317869   -5.782506    0.030833
     27          1           0        0.601877    2.621014    0.083278
     28          6           0        0.341059    5.372771    0.108014
     29          1           0       -4.126636    3.991341   -0.102923
     30          1           0       -2.375743    5.763900   -0.037457
     31          6           0        2.277388    0.010047    0.060642
     32          6           0        3.707803    0.013889    0.028194
     33          6           0        4.447523    1.218101   -0.023999
     34          6           0        4.455580   -1.186484    0.034584
     35          6           0        5.837091    1.229508   -0.071927
     36          6           0        5.845235   -1.190853   -0.012570
     37          6           0        6.585491    0.021156   -0.070201
     38          7           0        7.961809    0.024529   -0.122795
     39          1           0       -6.813007   -0.032125   -0.180343
     40          9           0        0.164122    6.329015   -0.821111
     41          9           0        1.561974    4.845788   -0.078463
     42          9           0        0.351159    5.992134    1.303574
     43          9           0        1.600000   -4.815854    0.333542
     44          9           0        0.487574   -6.010889   -1.089708
     45          9           0        0.175966   -6.297350    1.027787
     46          1           0        3.910527    2.170366   -0.029839
     47          1           0        6.346824    2.191499   -0.112978
     48          1           0        6.361574   -2.150201   -0.005956
     49          1           0        3.925014   -2.141478    0.075718
     50          6           0        8.685382    1.280513   -0.185956
     51          6           0        8.693844   -1.228146   -0.124189
     52          1           0        8.491668    1.917745    0.696229
     53          1           0        8.422404    1.868758   -1.084316
     54          1           0        9.762669    1.077961   -0.222194
     55          1           0        8.432484   -1.862719   -0.990876
     56          1           0        8.506737   -1.821220    0.789689
     57          1           0        9.769630   -1.020470   -0.173730
 ---------------------------------------------------------------------
 Rotational constants (GHZ):      0.0734786      0.0557567      0.0320899
 Leave Link  202 at Sat Feb  4 06:29:14 2023, MaxMem= 13421772800 cpu:         2.0
 (Enter /home/scr/programs/g09/l301.exe)
 General basis read from cards:  (5D, 7F)
 Centers:      19     24     26     27     29     30     39     46     47     48
 Centers:      49     52     53     54     55     56     57
 S 3 1.00
     Exponent=  1.3010701000D+01 Coefficients=  1.9682158000D-02
     Exponent=  1.9622572000D+00 Coefficients=  1.3796524000D-01
     Exponent=  4.4453796000D-01 Coefficients=  4.7831935000D-01
 S 1 1.00
     Exponent=  1.2194962000D-01 Coefficients=  1.0000000000D+00
 P 1 1.00
     Exponent=  8.0000000000D-01 Coefficients=  1.0000000000D+00
 ****
 Centers:       2      5      6      7      8      9     10     11     12     13
 Centers:      14     15     16     17     18     20     21     25     28     31
 Centers:      32     33     34     35     36     37     50     51
 S 5 1.00
     Exponent=  1.2384016938D+03 Coefficients=  5.4568832082D-03
     Exponent=  1.8629004992D+02 Coefficients=  4.0638409211D-02
     Exponent=  4.2251176346D+01 Coefficients=  1.8025593888D-01
     Exponent=  1.1676557932D+01 Coefficients=  4.6315121755D-01
     Exponent=  3.5930506482D+00 Coefficients=  4.4087173314D-01
 S 1 1.00
     Exponent=  4.0245147363D-01 Coefficients=  1.0000000000D+00
 S 1 1.00
     Exponent=  1.3090182668D-01 Coefficients=  1.0000000000D+00
 P 3 1.00
     Exponent=  9.4680970621D+00 Coefficients=  3.8387871728D-02
     Exponent=  2.0103545142D+00 Coefficients=  2.1117025112D-01
     Exponent=  5.4771004707D-01 Coefficients=  5.1328172114D-01
 P 1 1.00
     Exponent=  1.5268613795D-01 Coefficients=  1.0000000000D+00
 D 1 1.00
     Exponent=  8.0000000000D-01 Coefficients=  1.0000000000D+00
 ****
 Centers:       3      4     38
 S 5 1.00
     Exponent=  1.7128415853D+03 Coefficients= -5.3934125305D-03
     Exponent=  2.5764812677D+02 Coefficients= -4.0221581118D-02
     Exponent=  5.8458245853D+01 Coefficients= -1.7931144990D-01
     Exponent=  1.6198367905D+01 Coefficients= -4.6376317823D-01
     Exponent=  5.0052600809D+00 Coefficients= -4.4171422662D-01
 S 1 1.00
     Exponent=  5.8731856571D-01 Coefficients=  1.0000000000D+00
 S 1 1.00
     Exponent=  1.8764592253D-01 Coefficients=  1.0000000000D+00
 P 3 1.00
     Exponent=  1.3571470233D+01 Coefficients= -4.0072398852D-02
     Exponent=  2.9257372874D+00 Coefficients= -2.1807045028D-01
     Exponent=  7.9927750754D-01 Coefficients= -5.1294466049D-01
 P 1 1.00
     Exponent=  2.1954348034D-01 Coefficients=  1.0000000000D+00
 D 1 1.00
     Exponent=  1.0000000000D+00 Coefficients=  1.0000000000D+00
 ****
 Centers:      22     23     40     41     42     43     44     45
 S 5 1.00
     Exponent=  2.8948325990D+03 Coefficients= -5.3408255515D-03
     Exponent=  4.3541939120D+02 Coefficients= -3.9904258866D-02
     Exponent=  9.8843328866D+01 Coefficients= -1.7912768038D-01
     Exponent=  2.7485198001D+01 Coefficients= -4.6758090825D-01
     Exponent=  8.5405498171D+00 Coefficients= -4.4653131020D-01
 S 1 1.00
     Exponent=  1.0654578038D+00 Coefficients=  1.0000000000D+00
 S 1 1.00
     Exponent=  3.3247346748D-01 Coefficients=  1.0000000000D+00
 P 3 1.00
     Exponent=  2.2696633924D+01 Coefficients= -4.5212874436D-02
     Exponent=  4.9872339257D+00 Coefficients= -2.3754317067D-01
     Exponent=  1.3491613954D+00 Coefficients= -5.1287353587D-01
 P 1 1.00
     Exponent=  3.4829881977D-01 Coefficients=  1.0000000000D+00
 D 1 1.00
     Exponent=  1.4000000000D+00 Coefficients=  1.0000000000D+00
 ****
 Centers:       1
 S 1 1.00
     Exponent=  2.5470000000D+00 Coefficients=  1.0000000000D+00
 S 1 1.00
     Exponent=  1.6140000000D+00 Coefficients=  1.0000000000D+00
 S 1 1.00
     Exponent=  5.1670000000D-01 Coefficients=  1.0000000000D+00
 S 1 1.00
     Exponent=  2.6510000000D-01 Coefficients=  1.0000000000D+00
 S 1 1.00
     Exponent=  5.8000000000D-02 Coefficients=  1.0000000000D+00
 P 1 1.00
     Exponent=  2.9110000000D+00 Coefficients=  1.0000000000D+00
 P 1 1.00
     Exponent=  1.8360000000D+00 Coefficients=  1.0000000000D+00
 P 1 1.00
     Exponent=  5.9820000000D-01 Coefficients=  1.0000000000D+00
 P 1 1.00
     Exponent=  9.9600000000D-02 Coefficients=  1.0000000000D+00
 P 1 1.00
     Exponent=  2.9000000000D-02 Coefficients=  1.0000000000D+00
 D 1 1.00
     Exponent=  1.2430000000D+00 Coefficients=  1.0000000000D+00
 D 1 1.00
     Exponent=  4.2710000000D-01 Coefficients=  1.0000000000D+00
 D 1 1.00
     Exponent=  1.3700000000D-01 Coefficients=  1.0000000000D+00
 F 1 1.00
     Exponent=  9.9300000000D-01 Coefficients=  1.0000000000D+00
 ****
 ======================================================================================================
                                       Pseudopotential Parameters
 ======================================================================================================
  Center     Atomic      Valence      Angular      Power
  Number     Number     Electrons     Momentum     of R      Exponent        Coefficient   SO-Coeffient
 ======================================================================================================
    1         78           18
                                      G and up 
                                                     1      728.9394056       -0.16192680    0.00000000
                                                     2      320.6567800    -1320.28738520    0.00000000
                                                     2       52.8680174     -298.31781350    0.00000000
                                                     2       12.0280128      -87.58370650    0.00000000
                                                     2        3.5238913       -8.14932740    0.00000000
                                      S - G
                                                     0      409.4437358        2.73342180    0.00000000
                                                     1      274.5419231       59.70243290    0.00000000
                                                     2      127.5658570      891.45895500    0.00000000
                                                     2       32.9036631      368.44676560    0.00000000
                                                     2        5.0593880      238.02630900    0.00000000
                                                     2        4.1506556     -107.05564540    0.00000000
                                      P - G
                                                     0      466.1728892        1.88785680    0.00000000
                                                     1      120.7888259       76.01386290    0.00000000
                                                     2       36.4118791      343.55111160    0.00000000
                                                     2        5.6985408      119.49117860    0.00000000
                                      D - G
                                                     0      249.5650763        2.93436780    0.00000000
                                                     1      126.6678585       59.33065710    0.00000000
                                                     2       63.1430586      452.44451940    0.00000000
                                                     2       17.9059470      210.47694790    0.00000000
                                                     2        4.2239373       58.62541120    0.00000000
                                      F - G
                                                     0      121.8158799        3.95342530    0.00000000
                                                     1       60.8757030       53.85551820    0.00000000
                                                     2       31.4767147      247.43051330    0.00000000
                                                     2        9.8811751      127.81879760    0.00000000
                                                     2        2.7319874       15.37720460    0.00000000
    2          6
                                   No pseudopotential on this center.
    3          7
                                   No pseudopotential on this center.
    4          7
                                   No pseudopotential on this center.
    5          6
                                   No pseudopotential on this center.
    6          6
                                   No pseudopotential on this center.
    7          6
                                   No pseudopotential on this center.
    8          6
                                   No pseudopotential on this center.
    9          6
                                   No pseudopotential on this center.
   10          6
                                   No pseudopotential on this center.
   11          6
                                   No pseudopotential on this center.
   12          6
                                   No pseudopotential on this center.
   13          6
                                   No pseudopotential on this center.
   14          6
                                   No pseudopotential on this center.
   15          6
                                   No pseudopotential on this center.
   16          6
                                   No pseudopotential on this center.
   17          6
                                   No pseudopotential on this center.
   18          6
                                   No pseudopotential on this center.
   19          1
                                   No pseudopotential on this center.
   20          6
                                   No pseudopotential on this center.
   21          6
                                   No pseudopotential on this center.
   22          9
                                   No pseudopotential on this center.
   23          9
                                   No pseudopotential on this center.
   24          1
                                   No pseudopotential on this center.
   25          6
                                   No pseudopotential on this center.
   26          1
                                   No pseudopotential on this center.
   27          1
                                   No pseudopotential on this center.
   28          6
                                   No pseudopotential on this center.
   29          1
                                   No pseudopotential on this center.
   30          1
                                   No pseudopotential on this center.
   31          6
                                   No pseudopotential on this center.
   32          6
                                   No pseudopotential on this center.
   33          6
                                   No pseudopotential on this center.
   34          6
                                   No pseudopotential on this center.
   35          6
                                   No pseudopotential on this center.
   36          6
                                   No pseudopotential on this center.
   37          6
                                   No pseudopotential on this center.
   38          7
                                   No pseudopotential on this center.
   39          1
                                   No pseudopotential on this center.
   40          9
                                   No pseudopotential on this center.
   41          9
                                   No pseudopotential on this center.
   42          9
                                   No pseudopotential on this center.
   43          9
                                   No pseudopotential on this center.
   44          9
                                   No pseudopotential on this center.
   45          9
                                   No pseudopotential on this center.
   46          1
                                   No pseudopotential on this center.
   47          1
                                   No pseudopotential on this center.
   48          1
                                   No pseudopotential on this center.
   49          1
                                   No pseudopotential on this center.
   50          6
                                   No pseudopotential on this center.
   51          6
                                   No pseudopotential on this center.
   52          1
                                   No pseudopotential on this center.
   53          1
                                   No pseudopotential on this center.
   54          1
                                   No pseudopotential on this center.
   55          1
                                   No pseudopotential on this center.
   56          1
                                   No pseudopotential on this center.
   57          1
                                   No pseudopotential on this center.
 ======================================================================================================
 Ernie: Thresh=  0.10000D-02 Tol=  0.10000D-05 Strict=F.
 AO basis set in the form of general basis input (Overlap normalization):
      1 0
 S   1 1.00       0.000000000000
      0.2547000000D+01  0.1000000000D+01
 S   1 1.00       0.000000000000
      0.1614000000D+01  0.1000000000D+01
 S   1 1.00       0.000000000000
      0.5167000000D+00  0.1000000000D+01
 S   1 1.00       0.000000000000
      0.2651000000D+00  0.1000000000D+01
 S   1 1.00       0.000000000000
      0.5800000000D-01  0.1000000000D+01
 P   1 1.00       0.000000000000
      0.2911000000D+01  0.1000000000D+01
 P   1 1.00       0.000000000000
      0.1836000000D+01  0.1000000000D+01
 P   1 1.00       0.000000000000
      0.5982000000D+00  0.1000000000D+01
 P   1 1.00       0.000000000000
      0.9960000000D-01  0.1000000000D+01
 P   1 1.00       0.000000000000
      0.2900000000D-01  0.1000000000D+01
 D   1 1.00       0.000000000000
      0.1243000000D+01  0.1000000000D+01
 D   1 1.00       0.000000000000
      0.4271000000D+00  0.1000000000D+01
 D   1 1.00       0.000000000000
      0.1370000000D+00  0.1000000000D+01
 F   1 1.00       0.000000000000
      0.9930000000D+00  0.1000000000D+01
 ****
      2 0
 S   5 1.00       0.000000000000
      0.1238401694D+04  0.5517365048D-02
      0.1862900499D+03  0.4108882856D-01
      0.4225117635D+02  0.1822538213D+00
      0.1167655793D+02  0.4682845944D+00
      0.3593050648D+01  0.4457581734D+00
 S   1 1.00       0.000000000000
      0.4024514736D+00  0.1000000000D+01
 S   1 1.00       0.000000000000
      0.1309018267D+00  0.1000000000D+01
 P   3 1.00       0.000000000000
      0.9468097062D+01  0.5688833201D-01
      0.2010354514D+01  0.3129405934D+00
      0.5477100471D+00  0.7606501651D+00
 P   1 1.00       0.000000000000
      0.1526861380D+00  0.1000000000D+01
 D   1 1.00       0.000000000000
      0.8000000000D+00  0.1000000000D+01
 ****
      3 0
 S   5 1.00       0.000000000000
      0.1712841585D+04 -0.5447799580D-02
      0.2576481268D+03 -0.4062717463D-01
      0.5845824585D+02 -0.1811196225D+00
      0.1619836791D+02 -0.4684397556D+00
      0.5005260081D+01 -0.4461684629D+00
 S   1 1.00       0.000000000000
      0.5873185657D+00  0.1000000000D+01
 S   1 1.00       0.000000000000
      0.1876459225D+00  0.1000000000D+01
 P   3 1.00       0.000000000000
      0.1357147023D+02 -0.5884811697D-01
      0.2925737287D+01 -0.3202462476D+00
      0.7992775075D+00 -0.7532822652D+00
 P   1 1.00       0.000000000000
      0.2195434803D+00  0.1000000000D+01
 D   1 1.00       0.000000000000
      0.1000000000D+01  0.1000000000D+01
 ****
      4 0
 S   5 1.00       0.000000000000
      0.1712841585D+04 -0.5447799580D-02
      0.2576481268D+03 -0.4062717463D-01
      0.5845824585D+02 -0.1811196225D+00
      0.1619836791D+02 -0.4684397556D+00
      0.5005260081D+01 -0.4461684629D+00
 S   1 1.00       0.000000000000
      0.5873185657D+00  0.1000000000D+01
 S   1 1.00       0.000000000000
      0.1876459225D+00  0.1000000000D+01
 P   3 1.00       0.000000000000
      0.1357147023D+02 -0.5884811697D-01
      0.2925737287D+01 -0.3202462476D+00
      0.7992775075D+00 -0.7532822652D+00
 P   1 1.00       0.000000000000
      0.2195434803D+00  0.1000000000D+01
 D   1 1.00       0.000000000000
      0.1000000000D+01  0.1000000000D+01
 ****
      5 0
 S   5 1.00       0.000000000000
      0.1238401694D+04  0.5517365048D-02
      0.1862900499D+03  0.4108882856D-01
      0.4225117635D+02  0.1822538213D+00
      0.1167655793D+02  0.4682845944D+00
      0.3593050648D+01  0.4457581734D+00
 S   1 1.00       0.000000000000
      0.4024514736D+00  0.1000000000D+01
 S   1 1.00       0.000000000000
      0.1309018267D+00  0.1000000000D+01
 P   3 1.00       0.000000000000
      0.9468097062D+01  0.5688833201D-01
      0.2010354514D+01  0.3129405934D+00
      0.5477100471D+00  0.7606501651D+00
 P   1 1.00       0.000000000000
      0.1526861380D+00  0.1000000000D+01
 D   1 1.00       0.000000000000
      0.8000000000D+00  0.1000000000D+01
 ****
      6 0
 S   5 1.00       0.000000000000
      0.1238401694D+04  0.5517365048D-02
      0.1862900499D+03  0.4108882856D-01
      0.4225117635D+02  0.1822538213D+00
      0.1167655793D+02  0.4682845944D+00
      0.3593050648D+01  0.4457581734D+00
 S   1 1.00       0.000000000000
      0.4024514736D+00  0.1000000000D+01
 S   1 1.00       0.000000000000
      0.1309018267D+00  0.1000000000D+01
 P   3 1.00       0.000000000000
      0.9468097062D+01  0.5688833201D-01
      0.2010354514D+01  0.3129405934D+00
      0.5477100471D+00  0.7606501651D+00
 P   1 1.00       0.000000000000
      0.1526861380D+00  0.1000000000D+01
 D   1 1.00       0.000000000000
      0.8000000000D+00  0.1000000000D+01
 ****
      7 0
 S   5 1.00       0.000000000000
      0.1238401694D+04  0.5517365048D-02
      0.1862900499D+03  0.4108882856D-01
      0.4225117635D+02  0.1822538213D+00
      0.1167655793D+02  0.4682845944D+00
      0.3593050648D+01  0.4457581734D+00
 S   1 1.00       0.000000000000
      0.4024514736D+00  0.1000000000D+01
 S   1 1.00       0.000000000000
      0.1309018267D+00  0.1000000000D+01
 P   3 1.00       0.000000000000
      0.9468097062D+01  0.5688833201D-01
      0.2010354514D+01  0.3129405934D+00
      0.5477100471D+00  0.7606501651D+00
 P   1 1.00       0.000000000000
      0.1526861380D+00  0.1000000000D+01
 D   1 1.00       0.000000000000
      0.8000000000D+00  0.1000000000D+01
 ****
      8 0
 S   5 1.00       0.000000000000
      0.1238401694D+04  0.5517365048D-02
      0.1862900499D+03  0.4108882856D-01
      0.4225117635D+02  0.1822538213D+00
      0.1167655793D+02  0.4682845944D+00
      0.3593050648D+01  0.4457581734D+00
 S   1 1.00       0.000000000000
      0.4024514736D+00  0.1000000000D+01
 S   1 1.00       0.000000000000
      0.1309018267D+00  0.1000000000D+01
 P   3 1.00       0.000000000000
      0.9468097062D+01  0.5688833201D-01
      0.2010354514D+01  0.3129405934D+00
      0.5477100471D+00  0.7606501651D+00
 P   1 1.00       0.000000000000
      0.1526861380D+00  0.1000000000D+01
 D   1 1.00       0.000000000000
      0.8000000000D+00  0.1000000000D+01
 ****
      9 0
 S   5 1.00       0.000000000000
      0.1238401694D+04  0.5517365048D-02
      0.1862900499D+03  0.4108882856D-01
      0.4225117635D+02  0.1822538213D+00
      0.1167655793D+02  0.4682845944D+00
      0.3593050648D+01  0.4457581734D+00
 S   1 1.00       0.000000000000
      0.4024514736D+00  0.1000000000D+01
 S   1 1.00       0.000000000000
      0.1309018267D+00  0.1000000000D+01
 P   3 1.00       0.000000000000
      0.9468097062D+01  0.5688833201D-01
      0.2010354514D+01  0.3129405934D+00
      0.5477100471D+00  0.7606501651D+00
 P   1 1.00       0.000000000000
      0.1526861380D+00  0.1000000000D+01
 D   1 1.00       0.000000000000
      0.8000000000D+00  0.1000000000D+01
 ****
     10 0
 S   5 1.00       0.000000000000
      0.1238401694D+04  0.5517365048D-02
      0.1862900499D+03  0.4108882856D-01
      0.4225117635D+02  0.1822538213D+00
      0.1167655793D+02  0.4682845944D+00
      0.3593050648D+01  0.4457581734D+00
 S   1 1.00       0.000000000000
      0.4024514736D+00  0.1000000000D+01
 S   1 1.00       0.000000000000
      0.1309018267D+00  0.1000000000D+01
 P   3 1.00       0.000000000000
      0.9468097062D+01  0.5688833201D-01
      0.2010354514D+01  0.3129405934D+00
      0.5477100471D+00  0.7606501651D+00
 P   1 1.00       0.000000000000
      0.1526861380D+00  0.1000000000D+01
 D   1 1.00       0.000000000000
      0.8000000000D+00  0.1000000000D+01
 ****
     11 0
 S   5 1.00       0.000000000000
      0.1238401694D+04  0.5517365048D-02
      0.1862900499D+03  0.4108882856D-01
      0.4225117635D+02  0.1822538213D+00
      0.1167655793D+02  0.4682845944D+00
      0.3593050648D+01  0.4457581734D+00
 S   1 1.00       0.000000000000
      0.4024514736D+00  0.1000000000D+01
 S   1 1.00       0.000000000000
      0.1309018267D+00  0.1000000000D+01
 P   3 1.00       0.000000000000
      0.9468097062D+01  0.5688833201D-01
      0.2010354514D+01  0.3129405934D+00
      0.5477100471D+00  0.7606501651D+00
 P   1 1.00       0.000000000000
      0.1526861380D+00  0.1000000000D+01
 D   1 1.00       0.000000000000
      0.8000000000D+00  0.1000000000D+01
 ****
     12 0
 S   5 1.00       0.000000000000
      0.1238401694D+04  0.5517365048D-02
      0.1862900499D+03  0.4108882856D-01
      0.4225117635D+02  0.1822538213D+00
      0.1167655793D+02  0.4682845944D+00
      0.3593050648D+01  0.4457581734D+00
 S   1 1.00       0.000000000000
      0.4024514736D+00  0.1000000000D+01
 S   1 1.00       0.000000000000
      0.1309018267D+00  0.1000000000D+01
 P   3 1.00       0.000000000000
      0.9468097062D+01  0.5688833201D-01
      0.2010354514D+01  0.3129405934D+00
      0.5477100471D+00  0.7606501651D+00
 P   1 1.00       0.000000000000
      0.1526861380D+00  0.1000000000D+01
 D   1 1.00       0.000000000000
      0.8000000000D+00  0.1000000000D+01
 ****
     13 0
 S   5 1.00       0.000000000000
      0.1238401694D+04  0.5517365048D-02
      0.1862900499D+03  0.4108882856D-01
      0.4225117635D+02  0.1822538213D+00
      0.1167655793D+02  0.4682845944D+00
      0.3593050648D+01  0.4457581734D+00
 S   1 1.00       0.000000000000
      0.4024514736D+00  0.1000000000D+01
 S   1 1.00       0.000000000000
      0.1309018267D+00  0.1000000000D+01
 P   3 1.00       0.000000000000
      0.9468097062D+01  0.5688833201D-01
      0.2010354514D+01  0.3129405934D+00
      0.5477100471D+00  0.7606501651D+00
 P   1 1.00       0.000000000000
      0.1526861380D+00  0.1000000000D+01
 D   1 1.00       0.000000000000
      0.8000000000D+00  0.1000000000D+01
 ****
     14 0
 S   5 1.00       0.000000000000
      0.1238401694D+04  0.5517365048D-02
      0.1862900499D+03  0.4108882856D-01
      0.4225117635D+02  0.1822538213D+00
      0.1167655793D+02  0.4682845944D+00
      0.3593050648D+01  0.4457581734D+00
 S   1 1.00       0.000000000000
      0.4024514736D+00  0.1000000000D+01
 S   1 1.00       0.000000000000
      0.1309018267D+00  0.1000000000D+01
 P   3 1.00       0.000000000000
      0.9468097062D+01  0.5688833201D-01
      0.2010354514D+01  0.3129405934D+00
      0.5477100471D+00  0.7606501651D+00
 P   1 1.00       0.000000000000
      0.1526861380D+00  0.1000000000D+01
 D   1 1.00       0.000000000000
      0.8000000000D+00  0.1000000000D+01
 ****
     15 0
 S   5 1.00       0.000000000000
      0.1238401694D+04  0.5517365048D-02
      0.1862900499D+03  0.4108882856D-01
      0.4225117635D+02  0.1822538213D+00
      0.1167655793D+02  0.4682845944D+00
      0.3593050648D+01  0.4457581734D+00
 S   1 1.00       0.000000000000
      0.4024514736D+00  0.1000000000D+01
 S   1 1.00       0.000000000000
      0.1309018267D+00  0.1000000000D+01
 P   3 1.00       0.000000000000
      0.9468097062D+01  0.5688833201D-01
      0.2010354514D+01  0.3129405934D+00
      0.5477100471D+00  0.7606501651D+00
 P   1 1.00       0.000000000000
      0.1526861380D+00  0.1000000000D+01
 D   1 1.00       0.000000000000
      0.8000000000D+00  0.1000000000D+01
 ****
     16 0
 S   5 1.00       0.000000000000
      0.1238401694D+04  0.5517365048D-02
      0.1862900499D+03  0.4108882856D-01
      0.4225117635D+02  0.1822538213D+00
      0.1167655793D+02  0.4682845944D+00
      0.3593050648D+01  0.4457581734D+00
 S   1 1.00       0.000000000000
      0.4024514736D+00  0.1000000000D+01
 S   1 1.00       0.000000000000
      0.1309018267D+00  0.1000000000D+01
 P   3 1.00       0.000000000000
      0.9468097062D+01  0.5688833201D-01
      0.2010354514D+01  0.3129405934D+00
      0.5477100471D+00  0.7606501651D+00
 P   1 1.00       0.000000000000
      0.1526861380D+00  0.1000000000D+01
 D   1 1.00       0.000000000000
      0.8000000000D+00  0.1000000000D+01
 ****
     17 0
 S   5 1.00       0.000000000000
      0.1238401694D+04  0.5517365048D-02
      0.1862900499D+03  0.4108882856D-01
      0.4225117635D+02  0.1822538213D+00
      0.1167655793D+02  0.4682845944D+00
      0.3593050648D+01  0.4457581734D+00
 S   1 1.00       0.000000000000
      0.4024514736D+00  0.1000000000D+01
 S   1 1.00       0.000000000000
      0.1309018267D+00  0.1000000000D+01
 P   3 1.00       0.000000000000
      0.9468097062D+01  0.5688833201D-01
      0.2010354514D+01  0.3129405934D+00
      0.5477100471D+00  0.7606501651D+00
 P   1 1.00       0.000000000000
      0.1526861380D+00  0.1000000000D+01
 D   1 1.00       0.000000000000
      0.8000000000D+00  0.1000000000D+01
 ****
     18 0
 S   5 1.00       0.000000000000
      0.1238401694D+04  0.5517365048D-02
      0.1862900499D+03  0.4108882856D-01
      0.4225117635D+02  0.1822538213D+00
      0.1167655793D+02  0.4682845944D+00
      0.3593050648D+01  0.4457581734D+00
 S   1 1.00       0.000000000000
      0.4024514736D+00  0.1000000000D+01
 S   1 1.00       0.000000000000
      0.1309018267D+00  0.1000000000D+01
 P   3 1.00       0.000000000000
      0.9468097062D+01  0.5688833201D-01
      0.2010354514D+01  0.3129405934D+00
      0.5477100471D+00  0.7606501651D+00
 P   1 1.00       0.000000000000
      0.1526861380D+00  0.1000000000D+01
 D   1 1.00       0.000000000000
      0.8000000000D+00  0.1000000000D+01
 ****
     19 0
 S   3 1.00       0.000000000000
      0.1301070100D+02  0.3348548481D-01
      0.1962257200D+01  0.2347218709D+00
      0.4445379600D+00  0.8137702853D+00
 S   1 1.00       0.000000000000
      0.1219496200D+00  0.1000000000D+01
 P   1 1.00       0.000000000000
      0.8000000000D+00  0.1000000000D+01
 ****
     20 0
 S   5 1.00       0.000000000000
      0.1238401694D+04  0.5517365048D-02
      0.1862900499D+03  0.4108882856D-01
      0.4225117635D+02  0.1822538213D+00
      0.1167655793D+02  0.4682845944D+00
      0.3593050648D+01  0.4457581734D+00
 S   1 1.00       0.000000000000
      0.4024514736D+00  0.1000000000D+01
 S   1 1.00       0.000000000000
      0.1309018267D+00  0.1000000000D+01
 P   3 1.00       0.000000000000
      0.9468097062D+01  0.5688833201D-01
      0.2010354514D+01  0.3129405934D+00
      0.5477100471D+00  0.7606501651D+00
 P   1 1.00       0.000000000000
      0.1526861380D+00  0.1000000000D+01
 D   1 1.00       0.000000000000
      0.8000000000D+00  0.1000000000D+01
 ****
     21 0
 S   5 1.00       0.000000000000
      0.1238401694D+04  0.5517365048D-02
      0.1862900499D+03  0.4108882856D-01
      0.4225117635D+02  0.1822538213D+00
      0.1167655793D+02  0.4682845944D+00
      0.3593050648D+01  0.4457581734D+00
 S   1 1.00       0.000000000000
      0.4024514736D+00  0.1000000000D+01
 S   1 1.00       0.000000000000
      0.1309018267D+00  0.1000000000D+01
 P   3 1.00       0.000000000000
      0.9468097062D+01  0.5688833201D-01
      0.2010354514D+01  0.3129405934D+00
      0.5477100471D+00  0.7606501651D+00
 P   1 1.00       0.000000000000
      0.1526861380D+00  0.1000000000D+01
 D   1 1.00       0.000000000000
      0.8000000000D+00  0.1000000000D+01
 ****
     22 0
 S   5 1.00       0.000000000000
      0.2894832599D+04 -0.5349321176D-02
      0.4354193912D+03 -0.3996773437D-01
      0.9884332887D+02 -0.1794126179D+00
      0.2748519800D+02 -0.4683246869D+00
      0.8540549817D+01 -0.4472416053D+00
 S   1 1.00       0.000000000000
      0.1065457804D+01  0.1000000000D+01
 S   1 1.00       0.000000000000
      0.3324734675D+00  0.1000000000D+01
 P   3 1.00       0.000000000000
      0.2269663392D+02 -0.6478214824D-01
      0.4987233926D+01 -0.3403578536D+00
      0.1349161395D+01 -0.7348581537D+00
 P   1 1.00       0.000000000000
      0.3482988198D+00  0.1000000000D+01
 D   1 1.00       0.000000000000
      0.1400000000D+01  0.1000000000D+01
 ****
     23 0
 S   5 1.00       0.000000000000
      0.2894832599D+04 -0.5349321176D-02
      0.4354193912D+03 -0.3996773437D-01
      0.9884332887D+02 -0.1794126179D+00
      0.2748519800D+02 -0.4683246869D+00
      0.8540549817D+01 -0.4472416053D+00
 S   1 1.00       0.000000000000
      0.1065457804D+01  0.1000000000D+01
 S   1 1.00       0.000000000000
      0.3324734675D+00  0.1000000000D+01
 P   3 1.00       0.000000000000
      0.2269663392D+02 -0.6478214824D-01
      0.4987233926D+01 -0.3403578536D+00
      0.1349161395D+01 -0.7348581537D+00
 P   1 1.00       0.000000000000
      0.3482988198D+00  0.1000000000D+01
 D   1 1.00       0.000000000000
      0.1400000000D+01  0.1000000000D+01
 ****
     24 0
 S   3 1.00       0.000000000000
      0.1301070100D+02  0.3348548481D-01
      0.1962257200D+01  0.2347218709D+00
      0.4445379600D+00  0.8137702853D+00
 S   1 1.00       0.000000000000
      0.1219496200D+00  0.1000000000D+01
 P   1 1.00       0.000000000000
      0.8000000000D+00  0.1000000000D+01
 ****
     25 0
 S   5 1.00       0.000000000000
      0.1238401694D+04  0.5517365048D-02
      0.1862900499D+03  0.4108882856D-01
      0.4225117635D+02  0.1822538213D+00
      0.1167655793D+02  0.4682845944D+00
      0.3593050648D+01  0.4457581734D+00
 S   1 1.00       0.000000000000
      0.4024514736D+00  0.1000000000D+01
 S   1 1.00       0.000000000000
      0.1309018267D+00  0.1000000000D+01
 P   3 1.00       0.000000000000
      0.9468097062D+01  0.5688833201D-01
      0.2010354514D+01  0.3129405934D+00
      0.5477100471D+00  0.7606501651D+00
 P   1 1.00       0.000000000000
      0.1526861380D+00  0.1000000000D+01
 D   1 1.00       0.000000000000
      0.8000000000D+00  0.1000000000D+01
 ****
     26 0
 S   3 1.00       0.000000000000
      0.1301070100D+02  0.3348548481D-01
      0.1962257200D+01  0.2347218709D+00
      0.4445379600D+00  0.8137702853D+00
 S   1 1.00       0.000000000000
      0.1219496200D+00  0.1000000000D+01
 P   1 1.00       0.000000000000
      0.8000000000D+00  0.1000000000D+01
 ****
     27 0
 S   3 1.00       0.000000000000
      0.1301070100D+02  0.3348548481D-01
      0.1962257200D+01  0.2347218709D+00
      0.4445379600D+00  0.8137702853D+00
 S   1 1.00       0.000000000000
      0.1219496200D+00  0.1000000000D+01
 P   1 1.00       0.000000000000
      0.8000000000D+00  0.1000000000D+01
 ****
     28 0
 S   5 1.00       0.000000000000
      0.1238401694D+04  0.5517365048D-02
      0.1862900499D+03  0.4108882856D-01
      0.4225117635D+02  0.1822538213D+00
      0.1167655793D+02  0.4682845944D+00
      0.3593050648D+01  0.4457581734D+00
 S   1 1.00       0.000000000000
      0.4024514736D+00  0.1000000000D+01
 S   1 1.00       0.000000000000
      0.1309018267D+00  0.1000000000D+01
 P   3 1.00       0.000000000000
      0.9468097062D+01  0.5688833201D-01
      0.2010354514D+01  0.3129405934D+00
      0.5477100471D+00  0.7606501651D+00
 P   1 1.00       0.000000000000
      0.1526861380D+00  0.1000000000D+01
 D   1 1.00       0.000000000000
      0.8000000000D+00  0.1000000000D+01
 ****
     29 0
 S   3 1.00       0.000000000000
      0.1301070100D+02  0.3348548481D-01
      0.1962257200D+01  0.2347218709D+00
      0.4445379600D+00  0.8137702853D+00
 S   1 1.00       0.000000000000
      0.1219496200D+00  0.1000000000D+01
 P   1 1.00       0.000000000000
      0.8000000000D+00  0.1000000000D+01
 ****
     30 0
 S   3 1.00       0.000000000000
      0.1301070100D+02  0.3348548481D-01
      0.1962257200D+01  0.2347218709D+00
      0.4445379600D+00  0.8137702853D+00
 S   1 1.00       0.000000000000
      0.1219496200D+00  0.1000000000D+01
 P   1 1.00       0.000000000000
      0.8000000000D+00  0.1000000000D+01
 ****
     31 0
 S   5 1.00       0.000000000000
      0.1238401694D+04  0.5517365048D-02
      0.1862900499D+03  0.4108882856D-01
      0.4225117635D+02  0.1822538213D+00
      0.1167655793D+02  0.4682845944D+00
      0.3593050648D+01  0.4457581734D+00
 S   1 1.00       0.000000000000
      0.4024514736D+00  0.1000000000D+01
 S   1 1.00       0.000000000000
      0.1309018267D+00  0.1000000000D+01
 P   3 1.00       0.000000000000
      0.9468097062D+01  0.5688833201D-01
      0.2010354514D+01  0.3129405934D+00
      0.5477100471D+00  0.7606501651D+00
 P   1 1.00       0.000000000000
      0.1526861380D+00  0.1000000000D+01
 D   1 1.00       0.000000000000
      0.8000000000D+00  0.1000000000D+01
 ****
     32 0
 S   5 1.00       0.000000000000
      0.1238401694D+04  0.5517365048D-02
      0.1862900499D+03  0.4108882856D-01
      0.4225117635D+02  0.1822538213D+00
      0.1167655793D+02  0.4682845944D+00
      0.3593050648D+01  0.4457581734D+00
 S   1 1.00       0.000000000000
      0.4024514736D+00  0.1000000000D+01
 S   1 1.00       0.000000000000
      0.1309018267D+00  0.1000000000D+01
 P   3 1.00       0.000000000000
      0.9468097062D+01  0.5688833201D-01
      0.2010354514D+01  0.3129405934D+00
      0.5477100471D+00  0.7606501651D+00
 P   1 1.00       0.000000000000
      0.1526861380D+00  0.1000000000D+01
 D   1 1.00       0.000000000000
      0.8000000000D+00  0.1000000000D+01
 ****
     33 0
 S   5 1.00       0.000000000000
      0.1238401694D+04  0.5517365048D-02
      0.1862900499D+03  0.4108882856D-01
      0.4225117635D+02  0.1822538213D+00
      0.1167655793D+02  0.4682845944D+00
      0.3593050648D+01  0.4457581734D+00
 S   1 1.00       0.000000000000
      0.4024514736D+00  0.1000000000D+01
 S   1 1.00       0.000000000000
      0.1309018267D+00  0.1000000000D+01
 P   3 1.00       0.000000000000
      0.9468097062D+01  0.5688833201D-01
      0.2010354514D+01  0.3129405934D+00
      0.5477100471D+00  0.7606501651D+00
 P   1 1.00       0.000000000000
      0.1526861380D+00  0.1000000000D+01
 D   1 1.00       0.000000000000
      0.8000000000D+00  0.1000000000D+01
 ****
     34 0
 S   5 1.00       0.000000000000
      0.1238401694D+04  0.5517365048D-02
      0.1862900499D+03  0.4108882856D-01
      0.4225117635D+02  0.1822538213D+00
      0.1167655793D+02  0.4682845944D+00
      0.3593050648D+01  0.4457581734D+00
 S   1 1.00       0.000000000000
      0.4024514736D+00  0.1000000000D+01
 S   1 1.00       0.000000000000
      0.1309018267D+00  0.1000000000D+01
 P   3 1.00       0.000000000000
      0.9468097062D+01  0.5688833201D-01
      0.2010354514D+01  0.3129405934D+00
      0.5477100471D+00  0.7606501651D+00
 P   1 1.00       0.000000000000
      0.1526861380D+00  0.1000000000D+01
 D   1 1.00       0.000000000000
      0.8000000000D+00  0.1000000000D+01
 ****
     35 0
 S   5 1.00       0.000000000000
      0.1238401694D+04  0.5517365048D-02
      0.1862900499D+03  0.4108882856D-01
      0.4225117635D+02  0.1822538213D+00
      0.1167655793D+02  0.4682845944D+00
      0.3593050648D+01  0.4457581734D+00
 S   1 1.00       0.000000000000
      0.4024514736D+00  0.1000000000D+01
 S   1 1.00       0.000000000000
      0.1309018267D+00  0.1000000000D+01
 P   3 1.00       0.000000000000
      0.9468097062D+01  0.5688833201D-01
      0.2010354514D+01  0.3129405934D+00
      0.5477100471D+00  0.7606501651D+00
 P   1 1.00       0.000000000000
      0.1526861380D+00  0.1000000000D+01
 D   1 1.00       0.000000000000
      0.8000000000D+00  0.1000000000D+01
 ****
     36 0
 S   5 1.00       0.000000000000
      0.1238401694D+04  0.5517365048D-02
      0.1862900499D+03  0.4108882856D-01
      0.4225117635D+02  0.1822538213D+00
      0.1167655793D+02  0.4682845944D+00
      0.3593050648D+01  0.4457581734D+00
 S   1 1.00       0.000000000000
      0.4024514736D+00  0.1000000000D+01
 S   1 1.00       0.000000000000
      0.1309018267D+00  0.1000000000D+01
 P   3 1.00       0.000000000000
      0.9468097062D+01  0.5688833201D-01
      0.2010354514D+01  0.3129405934D+00
      0.5477100471D+00  0.7606501651D+00
 P   1 1.00       0.000000000000
      0.1526861380D+00  0.1000000000D+01
 D   1 1.00       0.000000000000
      0.8000000000D+00  0.1000000000D+01
 ****
     37 0
 S   5 1.00       0.000000000000
      0.1238401694D+04  0.5517365048D-02
      0.1862900499D+03  0.4108882856D-01
      0.4225117635D+02  0.1822538213D+00
      0.1167655793D+02  0.4682845944D+00
      0.3593050648D+01  0.4457581734D+00
 S   1 1.00       0.000000000000
      0.4024514736D+00  0.1000000000D+01
 S   1 1.00       0.000000000000
      0.1309018267D+00  0.1000000000D+01
 P   3 1.00       0.000000000000
      0.9468097062D+01  0.5688833201D-01
      0.2010354514D+01  0.3129405934D+00
      0.5477100471D+00  0.7606501651D+00
 P   1 1.00       0.000000000000
      0.1526861380D+00  0.1000000000D+01
 D   1 1.00       0.000000000000
      0.8000000000D+00  0.1000000000D+01
 ****
     38 0
 S   5 1.00       0.000000000000
      0.1712841585D+04 -0.5447799580D-02
      0.2576481268D+03 -0.4062717463D-01
      0.5845824585D+02 -0.1811196225D+00
      0.1619836791D+02 -0.4684397556D+00
      0.5005260081D+01 -0.4461684629D+00
 S   1 1.00       0.000000000000
      0.5873185657D+00  0.1000000000D+01
 S   1 1.00       0.000000000000
      0.1876459225D+00  0.1000000000D+01
 P   3 1.00       0.000000000000
      0.1357147023D+02 -0.5884811697D-01
      0.2925737287D+01 -0.3202462476D+00
      0.7992775075D+00 -0.7532822652D+00
 P   1 1.00       0.000000000000
      0.2195434803D+00  0.1000000000D+01
 D   1 1.00       0.000000000000
      0.1000000000D+01  0.1000000000D+01
 ****
     39 0
 S   3 1.00       0.000000000000
      0.1301070100D+02  0.3348548481D-01
      0.1962257200D+01  0.2347218709D+00
      0.4445379600D+00  0.8137702853D+00
 S   1 1.00       0.000000000000
      0.1219496200D+00  0.1000000000D+01
 P   1 1.00       0.000000000000
      0.8000000000D+00  0.1000000000D+01
 ****
     40 0
 S   5 1.00       0.000000000000
      0.2894832599D+04 -0.5349321176D-02
      0.4354193912D+03 -0.3996773437D-01
      0.9884332887D+02 -0.1794126179D+00
      0.2748519800D+02 -0.4683246869D+00
      0.8540549817D+01 -0.4472416053D+00
 S   1 1.00       0.000000000000
      0.1065457804D+01  0.1000000000D+01
 S   1 1.00       0.000000000000
      0.3324734675D+00  0.1000000000D+01
 P   3 1.00       0.000000000000
      0.2269663392D+02 -0.6478214824D-01
      0.4987233926D+01 -0.3403578536D+00
      0.1349161395D+01 -0.7348581537D+00
 P   1 1.00       0.000000000000
      0.3482988198D+00  0.1000000000D+01
 D   1 1.00       0.000000000000
      0.1400000000D+01  0.1000000000D+01
 ****
     41 0
 S   5 1.00       0.000000000000
      0.2894832599D+04 -0.5349321176D-02
      0.4354193912D+03 -0.3996773437D-01
      0.9884332887D+02 -0.1794126179D+00
      0.2748519800D+02 -0.4683246869D+00
      0.8540549817D+01 -0.4472416053D+00
 S   1 1.00       0.000000000000
      0.1065457804D+01  0.1000000000D+01
 S   1 1.00       0.000000000000
      0.3324734675D+00  0.1000000000D+01
 P   3 1.00       0.000000000000
      0.2269663392D+02 -0.6478214824D-01
      0.4987233926D+01 -0.3403578536D+00
      0.1349161395D+01 -0.7348581537D+00
 P   1 1.00       0.000000000000
      0.3482988198D+00  0.1000000000D+01
 D   1 1.00       0.000000000000
      0.1400000000D+01  0.1000000000D+01
 ****
     42 0
 S   5 1.00       0.000000000000
      0.2894832599D+04 -0.5349321176D-02
      0.4354193912D+03 -0.3996773437D-01
      0.9884332887D+02 -0.1794126179D+00
      0.2748519800D+02 -0.4683246869D+00
      0.8540549817D+01 -0.4472416053D+00
 S   1 1.00       0.000000000000
      0.1065457804D+01  0.1000000000D+01
 S   1 1.00       0.000000000000
      0.3324734675D+00  0.1000000000D+01
 P   3 1.00       0.000000000000
      0.2269663392D+02 -0.6478214824D-01
      0.4987233926D+01 -0.3403578536D+00
      0.1349161395D+01 -0.7348581537D+00
 P   1 1.00       0.000000000000
      0.3482988198D+00  0.1000000000D+01
 D   1 1.00       0.000000000000
      0.1400000000D+01  0.1000000000D+01
 ****
     43 0
 S   5 1.00       0.000000000000
      0.2894832599D+04 -0.5349321176D-02
      0.4354193912D+03 -0.3996773437D-01
      0.9884332887D+02 -0.1794126179D+00
      0.2748519800D+02 -0.4683246869D+00
      0.8540549817D+01 -0.4472416053D+00
 S   1 1.00       0.000000000000
      0.1065457804D+01  0.1000000000D+01
 S   1 1.00       0.000000000000
      0.3324734675D+00  0.1000000000D+01
 P   3 1.00       0.000000000000
      0.2269663392D+02 -0.6478214824D-01
      0.4987233926D+01 -0.3403578536D+00
      0.1349161395D+01 -0.7348581537D+00
 P   1 1.00       0.000000000000
      0.3482988198D+00  0.1000000000D+01
 D   1 1.00       0.000000000000
      0.1400000000D+01  0.1000000000D+01
 ****
     44 0
 S   5 1.00       0.000000000000
      0.2894832599D+04 -0.5349321176D-02
      0.4354193912D+03 -0.3996773437D-01
      0.9884332887D+02 -0.1794126179D+00
      0.2748519800D+02 -0.4683246869D+00
      0.8540549817D+01 -0.4472416053D+00
 S   1 1.00       0.000000000000
      0.1065457804D+01  0.1000000000D+01
 S   1 1.00       0.000000000000
      0.3324734675D+00  0.1000000000D+01
 P   3 1.00       0.000000000000
      0.2269663392D+02 -0.6478214824D-01
      0.4987233926D+01 -0.3403578536D+00
      0.1349161395D+01 -0.7348581537D+00
 P   1 1.00       0.000000000000
      0.3482988198D+00  0.1000000000D+01
 D   1 1.00       0.000000000000
      0.1400000000D+01  0.1000000000D+01
 ****
     45 0
 S   5 1.00       0.000000000000
      0.2894832599D+04 -0.5349321176D-02
      0.4354193912D+03 -0.3996773437D-01
      0.9884332887D+02 -0.1794126179D+00
      0.2748519800D+02 -0.4683246869D+00
      0.8540549817D+01 -0.4472416053D+00
 S   1 1.00       0.000000000000
      0.1065457804D+01  0.1000000000D+01
 S   1 1.00       0.000000000000
      0.3324734675D+00  0.1000000000D+01
 P   3 1.00       0.000000000000
      0.2269663392D+02 -0.6478214824D-01
      0.4987233926D+01 -0.3403578536D+00
      0.1349161395D+01 -0.7348581537D+00
 P   1 1.00       0.000000000000
      0.3482988198D+00  0.1000000000D+01
 D   1 1.00       0.000000000000
      0.1400000000D+01  0.1000000000D+01
 ****
     46 0
 S   3 1.00       0.000000000000
      0.1301070100D+02  0.3348548481D-01
      0.1962257200D+01  0.2347218709D+00
      0.4445379600D+00  0.8137702853D+00
 S   1 1.00       0.000000000000
      0.1219496200D+00  0.1000000000D+01
 P   1 1.00       0.000000000000
      0.8000000000D+00  0.1000000000D+01
 ****
     47 0
 S   3 1.00       0.000000000000
      0.1301070100D+02  0.3348548481D-01
      0.1962257200D+01  0.2347218709D+00
      0.4445379600D+00  0.8137702853D+00
 S   1 1.00       0.000000000000
      0.1219496200D+00  0.1000000000D+01
 P   1 1.00       0.000000000000
      0.8000000000D+00  0.1000000000D+01
 ****
     48 0
 S   3 1.00       0.000000000000
      0.1301070100D+02  0.3348548481D-01
      0.1962257200D+01  0.2347218709D+00
      0.4445379600D+00  0.8137702853D+00
 S   1 1.00       0.000000000000
      0.1219496200D+00  0.1000000000D+01
 P   1 1.00       0.000000000000
      0.8000000000D+00  0.1000000000D+01
 ****
     49 0
 S   3 1.00       0.000000000000
      0.1301070100D+02  0.3348548481D-01
      0.1962257200D+01  0.2347218709D+00
      0.4445379600D+00  0.8137702853D+00
 S   1 1.00       0.000000000000
      0.1219496200D+00  0.1000000000D+01
 P   1 1.00       0.000000000000
      0.8000000000D+00  0.1000000000D+01
 ****
     50 0
 S   5 1.00       0.000000000000
      0.1238401694D+04  0.5517365048D-02
      0.1862900499D+03  0.4108882856D-01
      0.4225117635D+02  0.1822538213D+00
      0.1167655793D+02  0.4682845944D+00
      0.3593050648D+01  0.4457581734D+00
 S   1 1.00       0.000000000000
      0.4024514736D+00  0.1000000000D+01
 S   1 1.00       0.000000000000
      0.1309018267D+00  0.1000000000D+01
 P   3 1.00       0.000000000000
      0.9468097062D+01  0.5688833201D-01
      0.2010354514D+01  0.3129405934D+00
      0.5477100471D+00  0.7606501651D+00
 P   1 1.00       0.000000000000
      0.1526861380D+00  0.1000000000D+01
 D   1 1.00       0.000000000000
      0.8000000000D+00  0.1000000000D+01
 ****
     51 0
 S   5 1.00       0.000000000000
      0.1238401694D+04  0.5517365048D-02
      0.1862900499D+03  0.4108882856D-01
      0.4225117635D+02  0.1822538213D+00
      0.1167655793D+02  0.4682845944D+00
      0.3593050648D+01  0.4457581734D+00
 S   1 1.00       0.000000000000
      0.4024514736D+00  0.1000000000D+01
 S   1 1.00       0.000000000000
      0.1309018267D+00  0.1000000000D+01
 P   3 1.00       0.000000000000
      0.9468097062D+01  0.5688833201D-01
      0.2010354514D+01  0.3129405934D+00
      0.5477100471D+00  0.7606501651D+00
 P   1 1.00       0.000000000000
      0.1526861380D+00  0.1000000000D+01
 D   1 1.00       0.000000000000
      0.8000000000D+00  0.1000000000D+01
 ****
     52 0
 S   3 1.00       0.000000000000
      0.1301070100D+02  0.3348548481D-01
      0.1962257200D+01  0.2347218709D+00
      0.4445379600D+00  0.8137702853D+00
 S   1 1.00       0.000000000000
      0.1219496200D+00  0.1000000000D+01
 P   1 1.00       0.000000000000
      0.8000000000D+00  0.1000000000D+01
 ****
     53 0
 S   3 1.00       0.000000000000
      0.1301070100D+02  0.3348548481D-01
      0.1962257200D+01  0.2347218709D+00
      0.4445379600D+00  0.8137702853D+00
 S   1 1.00       0.000000000000
      0.1219496200D+00  0.1000000000D+01
 P   1 1.00       0.000000000000
      0.8000000000D+00  0.1000000000D+01
 ****
     54 0
 S   3 1.00       0.000000000000
      0.1301070100D+02  0.3348548481D-01
      0.1962257200D+01  0.2347218709D+00
      0.4445379600D+00  0.8137702853D+00
 S   1 1.00       0.000000000000
      0.1219496200D+00  0.1000000000D+01
 P   1 1.00       0.000000000000
      0.8000000000D+00  0.1000000000D+01
 ****
     55 0
 S   3 1.00       0.000000000000
      0.1301070100D+02  0.3348548481D-01
      0.1962257200D+01  0.2347218709D+00
      0.4445379600D+00  0.8137702853D+00
 S   1 1.00       0.000000000000
      0.1219496200D+00  0.1000000000D+01
 P   1 1.00       0.000000000000
      0.8000000000D+00  0.1000000000D+01
 ****
     56 0
 S   3 1.00       0.000000000000
      0.1301070100D+02  0.3348548481D-01
      0.1962257200D+01  0.2347218709D+00
      0.4445379600D+00  0.8137702853D+00
 S   1 1.00       0.000000000000
      0.1219496200D+00  0.1000000000D+01
 P   1 1.00       0.000000000000
      0.8000000000D+00  0.1000000000D+01
 ****
     57 0
 S   3 1.00       0.000000000000
      0.1301070100D+02  0.3348548481D-01
      0.1962257200D+01  0.2347218709D+00
      0.4445379600D+00  0.8137702853D+00
 S   1 1.00       0.000000000000
      0.1219496200D+00  0.1000000000D+01
 P   1 1.00       0.000000000000
      0.8000000000D+00  0.1000000000D+01
 ****

 There are   718 symmetry adapted cartesian basis functions of A   symmetry.
 There are   673 symmetry adapted basis functions of A   symmetry.
   673 basis functions,  1142 primitive gaussians,   718 cartesian basis functions
   148 alpha electrons      148 beta electrons
       nuclear repulsion energy      4615.4494918417 Hartrees.
 IExCor= 1009 DFT=T Ex+Corr=PBE1PBE ExCW=0 ScaHFX=  0.250000
 ScaDFX=  0.750000  0.750000  1.000000  1.000000 ScalE2=  1.000000  1.000000
 IRadAn=      5 IRanWt=     -1 IRanGd=            0 ICorTp=0 IEmpDi=  4
 NAtoms=   57 NActive=   57 NUniq=   57 SFac= 1.00D+00 NAtFMM=   60 NAOKFM=F Big=F
 Integral buffers will be    131072 words long.
 Raffenetti 2 integral format.
 Two-electron integral symmetry is turned on.
 Using the following non-standard input for PCM:
 Radii=UFF
 --- end of non-standard input.
 ------------------------------------------------------------------------------
 Polarizable Continuum Model (PCM)
 =================================
 Model                : PCM (using non-symmetric T matrix).
 Atomic radii         : UFF (Universal Force Field).
 Polarization charges : Total charges.
 Charge compensation  : None.
 Solution method      : On-the-fly selection.
 Cavity type          : Scaled VdW (van der Waals Surface) (Alpha=1.100).
 Cavity algorithm     : GePol (No added spheres)
                        Default sphere list used, NSphG=   57.
                        Lebedev-Laikov grids with approx.  5.0 points / Ang**2.
                        Smoothing algorithm: Karplus/York (Gamma=1.0000).
                        Polarization charges: spherical gaussians, with
                                              point-specific exponents (IZeta= 3).
                        Self-potential: point-specific (ISelfS= 7).
                        Self-field    : sphere-specific E.n sum rule (ISelfD= 2).
 Solvent              : n,n-DiMethylFormamide, Eps=  37.219000 Eps(inf)=   2.046330
 ------------------------------------------------------------------------------
 GePol: Number of generator spheres                  =      57
 GePol: Total number of spheres                      =      57
 GePol: Number of exposed spheres                    =      57 (100.00%)
 GePol: Number of points                             =    4625
 GePol: Average weight of points                     =       0.13
 GePol: Minimum weight of points                     =   0.84D-10
 GePol: Maximum weight of points                     =    0.21838
 GePol: Number of points with low weight             =     240
 GePol: Fraction of low-weight points (<1% of avg)   =       5.19%
 GePol: Cavity surface area                          =    588.921 Ang**2
 GePol: Cavity volume                                =    659.404 Ang**3
 Leave Link  301 at Sat Feb  4 06:29:15 2023, MaxMem= 13421772800 cpu:         6.1
 (Enter /home/scr/programs/g09/l302.exe)
 NPDir=0 NMtPBC=     1 NCelOv=     1 NCel=       1 NClECP=     1 NCelD=      1
         NCelK=      1 NCelE2=     1 NClLst=     1 CellRange=     0.0.
 One-electron integrals computed using PRISM.
   1 Symmetry operations used in ECPInt.
 ECPInt:  NShTT=   44850 NPrTT=  161586 LenC2=   31305 LenP2D=   71092.
 LDataN:  DoStor=T MaxTD1= 7 Len=  274
 NBasis=   673 RedAO= T EigKep=  1.94D-04  NBF=   673
 NBsUse=   673 1.00D-06 EigRej= -1.00D+00 NBFU=   673
 Precomputing XC quadrature grid using
 IXCGrd= 4 IRadAn=           5 IRanWt=          -1 IRanGd=           0 AccXCQ= 0.00D+00.
 Defaulting to unpruned grid for atomic number  78.
 Generated NRdTot=       0 NPtTot=           0 NUsed=           0 NTot=          32
 NSgBfM=   688   688   688   688   688 MxSgAt=    57 MxSgA2=    57.
 Leave Link  302 at Sat Feb  4 06:29:19 2023, MaxMem= 13421772800 cpu:       131.9
 (Enter /home/scr/programs/g09/l303.exe)
 DipDrv:  MaxL=1.
 Leave Link  303 at Sat Feb  4 06:29:19 2023, MaxMem= 13421772800 cpu:        10.3
 (Enter /home/scr/programs/g09/l401.exe)
 ExpMin= 2.90D-02 ExpMax= 2.89D+03 ExpMxC= 4.35D+02 IAcc=3 IRadAn=         5 AccDes= 0.00D+00
 Harris functional with IExCor= 1009 and IRadAn=       5 diagonalized for initial guess.
 HarFok:  IExCor= 1009 AccDes= 0.00D+00 IRadAn=         5 IDoV= 1 UseB2=F ITyADJ=14
 ICtDFT=  3500011 ScaDFX=  1.000000  1.000000  1.000000  1.000000
 Defaulting to unpruned grid for atomic number  78.
 Defaulting to unpruned grid for atomic number  78.
 Defaulting to unpruned grid for atomic number  78.
 Defaulting to unpruned grid for atomic number  78.
 Defaulting to unpruned grid for atomic number  78.
 Defaulting to unpruned grid for atomic number  78.
 Defaulting to unpruned grid for atomic number  78.
 Defaulting to unpruned grid for atomic number  78.
 Defaulting to unpruned grid for atomic number  78.
 Defaulting to unpruned grid for atomic number  78.
 Defaulting to unpruned grid for atomic number  78.
 Defaulting to unpruned grid for atomic number  78.
 Defaulting to unpruned grid for atomic number  78.
 Defaulting to unpruned grid for atomic number  78.
 Defaulting to unpruned grid for atomic number  78.
 Defaulting to unpruned grid for atomic number  78.
 Defaulting to unpruned grid for atomic number  78.
 Defaulting to unpruned grid for atomic number  78.
 Defaulting to unpruned grid for atomic number  78.
 Defaulting to unpruned grid for atomic number  78.
 Defaulting to unpruned grid for atomic number  78.
 Defaulting to unpruned grid for atomic number  78.
 Defaulting to unpruned grid for atomic number  78.
 Defaulting to unpruned grid for atomic number  78.
 Defaulting to unpruned grid for atomic number  78.
 Defaulting to unpruned grid for atomic number  78.
 Defaulting to unpruned grid for atomic number  78.
 Defaulting to unpruned grid for atomic number  78.
 Defaulting to unpruned grid for atomic number  78.
 Defaulting to unpruned grid for atomic number  78.
 Defaulting to unpruned grid for atomic number  78.
 Defaulting to unpruned grid for atomic number  78.
 FoFCou: FMM=F IPFlag=           0 FMFlag=      100000 FMFlg1=           0
         NFxFlg=           0 DoJE=T BraDBF=F KetDBF=T FulRan=T
         wScrn=  0.000000 ICntrl=     500 IOpCl=  0 I1Cent=   200000004 NGrid=           0
         NMat0=    1 NMatS0=      1 NMatT0=    0 NMatD0=    1 NMtDS0=    0 NMtDT0=    0
 Petite list used in FoFCou.
 Harris En= -2156.02681137006    
 JPrj=0 DoOrth=F DoCkMO=F.
 Leave Link  401 at Sat Feb  4 06:29:25 2023, MaxMem= 13421772800 cpu:       180.9
 (Enter /home/scr/programs/g09/l502.exe)
 Closed shell SCF:
 Using DIIS extrapolation, IDIIS=  1040.
 Integral symmetry usage will be decided dynamically.
 IVT=     1617468 IEndB=     1617468 NGot= 13421772800 MDV= 13420711975
 LenX= 13420711975 LenY= 13420195733
 Requested convergence on RMS density matrix=1.00D-08 within 200 cycles.
 Requested convergence on MAX density matrix=1.00D-06.
 Requested convergence on             energy=1.00D-06.
 No special actions if energy rises.
 Fock matrices will be formed incrementally for  20 cycles.

 Cycle   1  Pass 1  IDiag  1:
 FoFJK:  IHMeth= 1 ICntrl=       0 DoSepK=F KAlg= 0 I1Cent=   0 FoldK=F
 IRaf= 590000000 NMat=   1 IRICut=       1 DoRegI=T DoRafI=F ISym2E= 0.
 FoFCou: FMM=F IPFlag=           0 FMFlag=      100000 FMFlg1=           0
         NFxFlg=           0 DoJE=F BraDBF=F KetDBF=F FulRan=T
         wScrn=  0.000000 ICntrl=       0 IOpCl=  0 I1Cent=           0 NGrid=           0
         NMat0=    1 NMatS0=      1 NMatT0=    0 NMatD0=    1 NMtDS0=    0 NMtDT0=    0
 Symmetry not used in FoFCou.
 Defaulting to unpruned grid for atomic number  78.
 Defaulting to unpruned grid for atomic number  78.
 Defaulting to unpruned grid for atomic number  78.
 Defaulting to unpruned grid for atomic number  78.
 Defaulting to unpruned grid for atomic number  78.
 Defaulting to unpruned grid for atomic number  78.
 Defaulting to unpruned grid for atomic number  78.
 Defaulting to unpruned grid for atomic number  78.
 Defaulting to unpruned grid for atomic number  78.
 Defaulting to unpruned grid for atomic number  78.
 Defaulting to unpruned grid for atomic number  78.
 Defaulting to unpruned grid for atomic number  78.
 Defaulting to unpruned grid for atomic number  78.
 Defaulting to unpruned grid for atomic number  78.
 Defaulting to unpruned grid for atomic number  78.
 Defaulting to unpruned grid for atomic number  78.
 Defaulting to unpruned grid for atomic number  78.
 Defaulting to unpruned grid for atomic number  78.
 Defaulting to unpruned grid for atomic number  78.
 Defaulting to unpruned grid for atomic number  78.
 Defaulting to unpruned grid for atomic number  78.
 Defaulting to unpruned grid for atomic number  78.
 Defaulting to unpruned grid for atomic number  78.
 Defaulting to unpruned grid for atomic number  78.
 Defaulting to unpruned grid for atomic number  78.
 Defaulting to unpruned grid for atomic number  78.
 Defaulting to unpruned grid for atomic number  78.
 Defaulting to unpruned grid for atomic number  78.
 Defaulting to unpruned grid for atomic number  78.
 Defaulting to unpruned grid for atomic number  78.
 Defaulting to unpruned grid for atomic number  78.
 Defaulting to unpruned grid for atomic number  78.
 Inv3:  Mode=1 IEnd=    64171875.
 Iteration    1 A*A^-1 deviation from unit magnitude is 9.99D-15 for   2374.
 Iteration    1 A*A^-1 deviation from orthogonality  is 9.33D-15 for   3850   3373.
 Iteration    1 A^-1*A deviation from unit magnitude is 8.88D-15 for   3705.
 Iteration    1 A^-1*A deviation from orthogonality  is 1.36D-10 for   4294   4243.
 Iteration    2 A*A^-1 deviation from unit magnitude is 9.99D-15 for     49.
 Iteration    2 A*A^-1 deviation from orthogonality  is 7.83D-15 for   2770   2129.
 Iteration    2 A^-1*A deviation from unit magnitude is 1.78D-15 for   1607.
 Iteration    2 A^-1*A deviation from orthogonality  is 7.63D-16 for   2483     15.
 E= -2153.70698348435    
 DIIS: error= 8.08D-02 at cycle   1 NSaved=   1.
 NSaved= 1 IEnMin= 1 EnMin= -2153.70698348435     IErMin= 1 ErrMin= 8.08D-02
 ErrMax= 8.08D-02  0.00D+00 EMaxC= 1.00D-01 BMatC= 2.34D+00 BMatP= 2.34D+00
 IDIUse=3 WtCom= 1.92D-01 WtEn= 8.08D-01
 Coeff-Com:  0.100D+01
 Coeff-En:   0.100D+01
 Coeff:      0.100D+01
 Gap=     0.719 Goal=   None    Shift=    0.000
 GapD=    0.719 DampG=2.000 DampE=0.250 DampFc=0.5000 IDamp=-1.
 Damping current iteration by 5.00D-01
 RMSDP=1.37D-02 MaxDP=2.75D+00              OVMax= 6.89D-01

 Cycle   2  Pass 1  IDiag  1:
 RMSU=  6.62D-03    CP:  1.09D+00
 E= -2153.99046578848     Delta-E=       -0.283482304130 Rises=F Damp=T
 DIIS: error= 3.87D-02 at cycle   2 NSaved=   2.
 NSaved= 2 IEnMin= 2 EnMin= -2153.99046578848     IErMin= 2 ErrMin= 3.87D-02
 ErrMax= 3.87D-02  0.00D+00 EMaxC= 1.00D-01 BMatC= 6.32D-01 BMatP= 2.34D+00
 IDIUse=3 WtCom= 6.13D-01 WtEn= 3.87D-01
 Coeff-Com:  0.305D+00 0.695D+00
 Coeff-En:   0.449D+00 0.551D+00
 Coeff:      0.361D+00 0.639D+00
 Gap=     0.099 Goal=   None    Shift=    0.000
 RMSDP=5.79D-03 MaxDP=1.00D+00 DE=-2.83D-01 OVMax= 8.51D-01

 Cycle   3  Pass 1  IDiag  1:
 RMSU=  2.49D-03    CP:  1.00D+00  2.49D-01
 E= -2155.44951296937     Delta-E=       -1.459047180891 Rises=F Damp=F
 DIIS: error= 1.95D-02 at cycle   3 NSaved=   3.
 NSaved= 3 IEnMin= 3 EnMin= -2155.44951296937     IErMin= 3 ErrMin= 1.95D-02
 ErrMax= 1.95D-02  0.00D+00 EMaxC= 1.00D-01 BMatC= 3.22D-01 BMatP= 6.32D-01
 IDIUse=3 WtCom= 8.05D-01 WtEn= 1.95D-01
 Coeff-Com:  0.221D+00 0.294D+00 0.484D+00
 Coeff-En:   0.905D-01 0.000D+00 0.909D+00
 Coeff:      0.196D+00 0.237D+00 0.567D+00
 Gap=     0.101 Goal=   None    Shift=    0.000
 RMSDP=1.45D-03 MaxDP=2.55D-01 DE=-1.46D+00 OVMax= 1.40D-01

 Cycle   4  Pass 1  IDiag  1:
 RMSU=  1.20D-03    CP:  9.84D-01  1.78D-01  7.69D-01
 E= -2155.64330735174     Delta-E=       -0.193794382373 Rises=F Damp=F
 DIIS: error= 1.53D-02 at cycle   4 NSaved=   4.
 NSaved= 4 IEnMin= 4 EnMin= -2155.64330735174     IErMin= 4 ErrMin= 1.53D-02
 ErrMax= 1.53D-02  0.00D+00 EMaxC= 1.00D-01 BMatC= 1.07D-01 BMatP= 3.22D-01
 IDIUse=3 WtCom= 8.47D-01 WtEn= 1.53D-01
 Coeff-Com:  0.589D-01 0.376D-02 0.379D+00 0.558D+00
 Coeff-En:   0.000D+00 0.000D+00 0.278D+00 0.722D+00
 Coeff:      0.499D-01 0.318D-02 0.364D+00 0.583D+00
 Gap=     0.091 Goal=   None    Shift=    0.000
 RMSDP=6.02D-04 MaxDP=7.73D-02 DE=-1.94D-01 OVMax= 7.16D-02

 Cycle   5  Pass 1  IDiag  1:
 RMSU=  3.34D-04    CP:  9.89D-01  1.68D-01  8.35D-01  6.19D-01
 E= -2155.73676047030     Delta-E=       -0.093453118557 Rises=F Damp=F
 DIIS: error= 2.57D-03 at cycle   5 NSaved=   5.
 NSaved= 5 IEnMin= 5 EnMin= -2155.73676047030     IErMin= 5 ErrMin= 2.57D-03
 ErrMax= 2.57D-03  0.00D+00 EMaxC= 1.00D-01 BMatC= 6.90D-03 BMatP= 1.07D-01
 IDIUse=3 WtCom= 9.74D-01 WtEn= 2.57D-02
 Coeff-Com:  0.710D-02-0.105D-01 0.129D+00 0.291D+00 0.583D+00
 Coeff-En:   0.000D+00 0.000D+00 0.000D+00 0.225D-02 0.998D+00
 Coeff:      0.692D-02-0.102D-01 0.126D+00 0.284D+00 0.594D+00
 Gap=     0.101 Goal=   None    Shift=    0.000
 RMSDP=1.63D-04 MaxDP=1.82D-02 DE=-9.35D-02 OVMax= 1.89D-02

 Cycle   6  Pass 1  IDiag  1:
 RMSU=  1.19D-04    CP:  9.87D-01  1.69D-01  8.35D-01  6.79D-01  7.63D-01
 E= -2155.74307100008     Delta-E=       -0.006310529780 Rises=F Damp=F
 DIIS: error= 1.21D-03 at cycle   6 NSaved=   6.
 NSaved= 6 IEnMin= 6 EnMin= -2155.74307100008     IErMin= 6 ErrMin= 1.21D-03
 ErrMax= 1.21D-03  0.00D+00 EMaxC= 1.00D-01 BMatC= 7.05D-04 BMatP= 6.90D-03
 IDIUse=3 WtCom= 9.88D-01 WtEn= 1.21D-02
 Coeff-Com: -0.180D-02-0.504D-02 0.262D-01 0.815D-01 0.309D+00 0.590D+00
 Coeff-En:   0.000D+00 0.000D+00 0.000D+00 0.000D+00 0.405D-01 0.959D+00
 Coeff:     -0.177D-02-0.498D-02 0.259D-01 0.805D-01 0.306D+00 0.595D+00
 Gap=     0.099 Goal=   None    Shift=    0.000
 RMSDP=5.55D-05 MaxDP=4.64D-03 DE=-6.31D-03 OVMax= 8.14D-03

 Cycle   7  Pass 1  IDiag  1:
 RMSU=  4.03D-05    CP:  9.87D-01  1.68D-01  8.38D-01  6.75D-01  8.14D-01
                    CP:  7.26D-01
 E= -2155.74372545682     Delta-E=       -0.000654456740 Rises=F Damp=F
 DIIS: error= 5.59D-04 at cycle   7 NSaved=   7.
 NSaved= 7 IEnMin= 7 EnMin= -2155.74372545682     IErMin= 7 ErrMin= 5.59D-04
[...]
                 1 
      1   0.446698D+05
      2  -0.137681D+03
      3   0.239226D+04
      4  -0.262941D+03
      5  -0.755702D+01
      6  -0.447422D+02
      7  -0.139056D+03
      8   0.207599D+04
      9  -0.167535D+02
     10  -0.763677D+01
     11  -0.501829D+02
     12  -0.532111D+00
     13  -0.277211D+03
     14  -0.719943D+01
     15  -0.531092D+02
     16  -0.358337D+02
     17  -0.541031D+00
     18  -0.271760D+01

 ----------------------------------------------------------------------

 Electric dipole moment (input orientation):
 (Debye = 10**-18 statcoulomb cm , SI units = C m)
                  (au)            (Debye)         (10**-30 SI)
   Tot        0.146868D+01      0.373302D+01      0.124520D+02
   x          0.145871D+01      0.370767D+01      0.123675D+02
   y         -0.111363D-01     -0.283056D-01     -0.944172D-01
   z          0.170517D+00      0.433411D+00      0.144570D+01

 Dipole polarizability, Alpha (input orientation).
 (esu units = cm**3 , SI units = C**2 m**2 J**-1)
 Alpha(0;0):
               (au)            (10**-24 esu)      (10**-40 SI)
   iso        0.602883D+03      0.893380D+02      0.994020D+02
   aniso      0.568340D+03      0.842194D+02      0.937067D+02
   xx         0.887912D+03      0.131575D+03      0.146397D+03
   yx        -0.417707D+00     -0.618979D-01     -0.688707D-01
   yy         0.676525D+03      0.100251D+03      0.111544D+03
   zx         0.256394D+01      0.379937D+00      0.422737D+00
   zy         0.295490D+01      0.437871D+00      0.487198D+00
   zz         0.244212D+03      0.361885D+02      0.402651D+02
 Alpha(-w;w) w= 1907.0nm:
                  (au)         (10**-24 esu)      (10**-40 SI)
   iso        0.505813D+03      0.749537D+02      0.833973D+02
   aniso      0.515236D+03      0.763500D+02      0.849509D+02
   xx         0.770578D+03      0.114188D+03      0.127051D+03
   yx        -0.424522D+00     -0.629077D-01     -0.699942D-01
   yy         0.562916D+03      0.834155D+02      0.928123D+02
   zx         0.189269D+01      0.280468D+00      0.312063D+00
   zy         0.229021D+01      0.339374D+00      0.377605D+00
   zz         0.183945D+03      0.272578D+02      0.303284D+02

 First dipole hyperpolarizability, Beta (input orientation).
 ||, _|_  parallel and perpendicular components, (z) with respect to z axis,
 vector components x,y,z.  Values do not include the 1/n! factor of 1/2.
 (esu units = statvolt**-1 cm**4 , SI units = C**3 m**3 J**-2)
 Beta(0;0,0):
               (au)            (10**-30 esu)      (10**-50 SI)
   || (z)    -0.185316D+03     -0.160098D+01     -0.594189D+00
   _|_(z)    -0.617718D+02     -0.533661D+00     -0.198063D+00
   x          0.122905D+06      0.106181D+04      0.394079D+03
   y         -0.393982D+03     -0.340369D+01     -0.126325D+01
   z         -0.926578D+03     -0.800491D+01     -0.297094D+01
   ||         0.245819D+05      0.212368D+03      0.788183D+02
   xxx        0.399651D+05      0.345268D+03      0.128143D+03
   xxy       -0.128868D+03     -0.111332D+01     -0.413199D+00
   yxy        0.108368D+04      0.936214D+01      0.347467D+01
   yyy       -0.207822D+01     -0.179542D-01     -0.666352D-02
   xxz       -0.221744D+03     -0.191570D+01     -0.710993D+00
   yxz       -0.194684D+02     -0.168192D+00     -0.624227D-01
   yyz       -0.682069D+02     -0.589254D+00     -0.218696D+00
   zxz       -0.804141D+02     -0.694715D+00     -0.257837D+00
   zyz       -0.380520D+00     -0.328739D-02     -0.122008D-02
   zzz       -0.189080D+02     -0.163350D+00     -0.606259D-01
 Beta(-w;w,0) w= 1907.0nm:
                  (au)         (10**-30 esu)      (10**-50 SI)
   || (z)    -0.159267D+03     -0.137595D+01     -0.510669D+00
   _|_(z)    -0.442492D+02     -0.382279D+00     -0.141879D+00
   x          0.108483D+06      0.937207D+03      0.347835D+03
   y         -0.349949D+03     -0.302328D+01     -0.112206D+01
   z         -0.796337D+03     -0.687973D+01     -0.255334D+01
   ||         0.216973D+05      0.187447D+03      0.695692D+02
   xxx        0.349462D+05      0.301908D+03      0.112050D+03
   yxx       -0.110524D+03     -0.954840D+00     -0.354379D+00
   yyx        0.108101D+04      0.933907D+01      0.346611D+01
   zxx       -0.214096D+03     -0.184962D+01     -0.686469D+00
   zyx       -0.131916D+02     -0.113965D+00     -0.422970D-01
   zzx       -0.192409D+02     -0.166226D+00     -0.616932D-01
   xxy       -0.109450D+03     -0.945567D+00     -0.350938D+00
   yxy        0.133886D+04      0.115667D+02      0.429288D+01
   yyy       -0.595121D+01     -0.514138D-01     -0.190817D-01
   zxy       -0.125404D+02     -0.108339D+00     -0.402090D-01
   zyy       -0.540894D+02     -0.467290D+00     -0.173430D+00
   zzy       -0.569027D+00     -0.491595D-02     -0.182451D-02
   xxz       -0.193834D+03     -0.167457D+01     -0.621501D+00
   yxz       -0.124004D+02     -0.107130D+00     -0.397603D-01
   yyz       -0.478317D+02     -0.413229D+00     -0.153366D+00
   zxz       -0.477037D+02     -0.412123D+00     -0.152955D+00
   zyz       -0.514001D+00     -0.444057D-02     -0.164807D-02
   zzz       -0.610027D+01     -0.527016D-01     -0.195597D-01
 Beta(-2w;w,w) w= 1907.0nm:
                  (au)         (10**-30 esu)      (10**-50 SI)
   || (z)    -0.192944D+03     -0.166689D+01     -0.618649D+00
   _|_(z)    -0.700467D+02     -0.605149D+00     -0.224595D+00
   x          0.140437D+06      0.121327D+04      0.450292D+03
   y         -0.466293D+03     -0.402841D+01     -0.149510D+01
   z         -0.964722D+03     -0.833444D+01     -0.309325D+01
   ||         0.280882D+05      0.242660D+03      0.900610D+02
   xxx        0.446698D+05      0.385912D+03      0.143227D+03
   yxx       -0.139056D+03     -0.120134D+01     -0.445864D+00
   zxx       -0.277211D+03     -0.239489D+01     -0.888839D+00
   xyx       -0.137681D+03     -0.118946D+01     -0.441456D+00
   yyx        0.207599D+04      0.179349D+02      0.665636D+01
   zyx       -0.719943D+01     -0.621974D-01     -0.230840D-01
   xyy        0.239226D+04      0.206673D+02      0.767045D+01
   yyy       -0.167535D+02     -0.144737D+00     -0.537178D-01
   zyy       -0.531092D+02     -0.458822D+00     -0.170287D+00
   xzx       -0.262941D+03     -0.227161D+01     -0.843085D+00
   yzx       -0.763677D+01     -0.659758D-01     -0.244863D-01
   zzx       -0.358337D+02     -0.309575D+00     -0.114896D+00
   xzy       -0.755702D+01     -0.652868D-01     -0.242305D-01
   yzy       -0.501829D+02     -0.433541D+00     -0.160905D+00
   zzy       -0.541031D+00     -0.467409D-02     -0.173474D-02
   xzz       -0.447422D+02     -0.386538D+00     -0.143460D+00
   yzz       -0.532111D+00     -0.459703D-02     -0.170614D-02
   zzz       -0.271760D+01     -0.234780D-01     -0.871361D-02

 ----------------------------------------------------------------------

 Dipole orientation:
    78          0.26547002          0.00769057          1.88695753
     6         -0.08998984         -0.00172926         -1.96969856
     7          0.31185302         -3.82013283          2.56161927
     7          0.34328022          3.83866316          2.54410412
     6          0.21951751          5.62719895          0.75187021
     6          0.16912061         -5.61488667          0.77704675
     6          0.54549316          4.51450678          5.05992187
     6          0.51736702         -4.48707839          5.07942099
     6          0.65865357         -2.33080445          6.81269812
     6          0.67213919          2.36488518          6.80250064
     6          0.88705004          2.30438928          9.44500382
     6          0.61151153          7.07880216          5.72597033
     6          0.48099909          8.92660601          3.86409997
     6          0.28528213          8.19266937          1.32841315
     6          0.87451205         -2.25991194          9.45484095
     6          0.98822676          0.02480926         10.77426180
     6          0.58040038         -7.04929484          5.75440717
     6          0.43532975         -8.90360034          3.90002528
     1          0.74813478         -7.56026850          7.73952682
     6          0.22282807         -8.17823579          1.36314742
     6          0.56311623          0.01469183          5.56312115
     9          0.98084811         -4.40345268         10.80069788
     9          1.00462693          4.45316476         10.78165129
     1          0.01380475         -4.93813161         -1.16307196
     6          0.00711081        -10.13904339         -0.69007333
     1          0.49290451        -10.89767631          4.42647909
     1          0.05761371          4.94387566         -1.18548526
     6          0.19637760         10.14664618         -0.74081269
     1          0.76350711          7.59624475          7.71064146
     1          0.52466421         10.92246135          4.38464277
     6         -0.38593555         -0.01092295         -4.28785976
     6         -0.76076119         -0.02143737         -6.96552990
     6         -1.00573388          2.24539382         -8.35970807
     6         -0.92820944         -2.29932137         -8.35322851
     6         -1.40055151          2.24991710        -10.95742489
     6         -1.32179461         -2.32462108        -10.95105239
     6         -1.57699208         -0.04298725        -12.34515517
     7         -1.97776138         -0.05340945        -14.91686434
     1          1.15654754          0.02875098         12.82730479
     9         -1.49645906         11.96916176         -0.21857227
     9         -0.42832757          9.13794796         -2.98387385
     9          2.44599498         11.29975261         -1.03095069
     9          0.21341794         -9.12535733         -3.00720269
     9         -2.22893101        -11.34895178         -0.58991402
     9          1.81012268        -11.91662457         -0.46553468
     1         -0.88668299          4.05175024         -7.36418818
     1         -1.57721876          4.06181156        -11.91891615
     1         -1.43494894         -4.14411132        -11.90786964
     1         -0.74672439         -4.09773153         -7.35275442
     6         -2.23911544          2.31161277        -16.27907176
     6         -2.15703093         -2.42981444        -16.27255966
     1         -0.53270441          3.50557410        -16.11817429
     1         -3.86001608          3.43940313        -15.59681857
     1         -2.54617536          1.91564737        -18.29016995
     1         -3.73443215         -3.61317064        -15.58277084
     1         -0.40827351         -3.56121311        -16.11338746
     1         -2.48349883         -2.05039145        -18.28380002

 Electric dipole moment (dipole orientation):
 (Debye = 10**-18 statcoulomb cm , SI units = C m)
                  (au)            (Debye)         (10**-30 SI)
   Tot        0.146868D+01      0.373302D+01      0.124520D+02
   x          0.000000D+00      0.000000D+00      0.000000D+00
   y          0.000000D+00      0.000000D+00      0.000000D+00
   z          0.146868D+01      0.373302D+01      0.124520D+02

 Dipole polarizability, Alpha (dipole orientation).
 (esu units = cm**3 , SI units = C**2 m**2 J**-1)
 Alpha(0;0):
               (au)            (10**-24 esu)      (10**-40 SI)
   iso        0.602883D+03      0.893380D+02      0.994020D+02
   aniso      0.568340D+03      0.842194D+02      0.937067D+02
   xx         0.252284D+03      0.373847D+02      0.415961D+02
   yx         0.423422D+00      0.627446D-01      0.698128D-01
   yy         0.676549D+03      0.100254D+03      0.111548D+03
   zx         0.717655D+02      0.106345D+02      0.118325D+02
   zy         0.985456D+00      0.146030D+00      0.162480D+00
   zz         0.879816D+03      0.130375D+03      0.145062D+03
 Alpha(-w;w) w= 1907.0nm:
                  (au)         (10**-24 esu)      (10**-40 SI)
   iso        0.505813D+03      0.749537D+02      0.833973D+02
   aniso      0.515236D+03      0.763500D+02      0.849509D+02
   xx         0.191408D+03      0.283638D+02      0.315590D+02
   yx         0.682014D+00      0.101064D+00      0.112449D+00
   yy         0.562933D+03      0.834180D+02      0.928150D+02
   zx         0.658323D+02      0.975534D+01      0.108543D+02
   zy         0.917971D+00      0.136029D+00      0.151353D+00
   zz         0.763097D+03      0.113079D+03      0.125818D+03

 First dipole hyperpolarizability, Beta (dipole orientation).
 ||, _|_  parallel and perpendicular components, (z) with respect to z axis,
 vector components x,y,z.  Values do not include the 1/n! factor of 1/2.
 (esu units = statvolt**-1 cm**4 , SI units = C**3 m**3 J**-2)
 Beta(0;0,0):
               (au)            (10**-30 esu)      (10**-50 SI)
   || (z)     0.243932D+05      0.210738D+03      0.782133D+02
   _|_(z)     0.813106D+04      0.702460D+02      0.260711D+02
   x          0.151935D+05      0.131260D+03      0.487158D+02
   y          0.428325D+03      0.370039D+01      0.137336D+01
   z          0.121966D+06      0.105369D+04      0.391067D+03
   ||         0.245819D+05      0.212368D+03      0.788183D+02
   xxx        0.625014D+02      0.539963D+00      0.200402D+00
   xxy        0.841575D+01      0.727055D-01      0.269839D-01
   yxy        0.193932D+03      0.167542D+01      0.621816D+00
   yyy        0.182934D+02      0.158041D+00      0.586552D-01
   xxz        0.507268D+03      0.438240D+01      0.162648D+01
   yxz        0.428968D+02      0.370595D+00      0.137543D+00
   yyz        0.106793D+04      0.922607D+01      0.342417D+01
   zxz        0.480806D+04      0.415379D+02      0.154164D+02
   zyz        0.116066D+03      0.100272D+01      0.372149D+00
   zzz        0.390801D+05      0.337622D+03      0.125305D+03
 Beta(-w;w,0) w= 1907.0nm:
                  (au)         (10**-30 esu)      (10**-50 SI)
   || (z)     0.215312D+05      0.186013D+03      0.690369D+02
   _|_(z)     0.710216D+04      0.613571D+02      0.227721D+02
   x          0.133892D+05      0.115672D+03      0.429306D+02
   y          0.376027D+03      0.324858D+01      0.120568D+01
   z          0.107656D+06      0.930066D+03      0.345185D+03
   ||         0.216973D+05      0.187447D+03      0.695692D+02
   xxx        0.559851D+02      0.483667D+00      0.179508D+00
   yxx        0.670606D+01      0.579351D-01      0.215021D-01
   yyx        0.173302D+03      0.149719D+01      0.555667D+00
   zxx        0.468170D+03      0.404463D+01      0.150112D+01
   zyx        0.356594D+02      0.308069D+00      0.114337D+00
   zzx        0.419846D+04      0.362715D+02      0.134618D+02
   xxy        0.708349D+01      0.611958D-01      0.227122D-01
   yxy        0.209460D+03      0.180957D+01      0.671606D+00
   yyy        0.182181D+02      0.157390D+00      0.584137D-01
   zxy        0.357897D+02      0.309195D+00      0.114755D+00
   zyy        0.132315D+04      0.114310D+02      0.424251D+01
   zzy        0.998216D+02      0.862381D+00      0.320064D+00
   xxz        0.498788D+03      0.430914D+01      0.159929D+01
   yxz        0.343739D+02      0.296964D+00      0.110215D+00
   yyz        0.106777D+04      0.922473D+01      0.342367D+01
   zxz        0.421528D+04      0.364168D+02      0.135157D+02
   zyz        0.100528D+03      0.868480D+00      0.322328D+00
   zzz        0.341690D+05      0.295194D+03      0.109558D+03
 Beta(-2w;w,w) w= 1907.0nm:
                  (au)         (10**-30 esu)      (10**-50 SI)
   || (z)     0.278750D+05      0.240818D+03      0.893772D+02
   _|_(z)     0.939275D+04      0.811461D+02      0.301166D+02
   x          0.172673D+05      0.149176D+03      0.553651D+02
   y          0.474025D+03      0.409521D+01      0.151990D+01
   z          0.139375D+06      0.120409D+04      0.446886D+03
   ||         0.280882D+05      0.242660D+03      0.900610D+02
   xxx        0.701154D+02      0.605742D+00      0.224815D+00
   yxx        0.747885D+01      0.646114D-01      0.239799D-01
   zxx        0.615176D+03      0.531464D+01      0.197248D+01
   xyx        0.777596D+01      0.671782D-01      0.249325D-01
   yyx        0.291159D+03      0.251538D+01      0.933560D+00
   zyx        0.419431D+02      0.362356D+00      0.134485D+00
   xyy        0.330779D+03      0.285767D+01      0.106060D+01
   yyy        0.262308D+02      0.226613D+00      0.841053D-01
   zyy        0.236954D+04      0.204710D+02      0.759761D+01
   xzx        0.625662D+03      0.540523D+01      0.200610D+01
   yzx        0.396681D+02      0.342701D+00      0.127190D+00
   zzx        0.537689D+04      0.464521D+02      0.172402D+02
   xzy        0.391965D+02      0.338627D+00      0.125678D+00
   yzy        0.205576D+04      0.177602D+02      0.659152D+01
   zzy        0.123809D+03      0.106961D+01      0.396977D+00
   xzz        0.539004D+04      0.465657D+02      0.172824D+02
   yzz        0.124684D+03      0.107717D+01      0.399782D+00
   zzz        0.436758D+05      0.377324D+03      0.140040D+03

 ----------------------------------------------------------------------
 1\1\GINC-NEQC30\SP\RPBE1PBE\Gen\C28H17F8N3Pt1\GUEST\04-Feb-2023\0\\#p 
 PBE1PBE/gen gfinput pseudo=read Integral(Grid=UltraFine,Acc2E=12) scf=
 maxcycle=200 Polar=(DCSHG) CPHF=RdFreq scrf=(iefpcm,read,solvent=n,n-D
 iMethylFormamide)\\Primeira Hiperpolarizabilidade\\0,1\Pt,0,1.008098,-
 0.002554,-0.023564\C,0,-1.040778,0.006667,-0.073725\N,0,1.351872,-2.03
 0588,-0.021851\N,0,1.371945,2.022246,-0.008714\C,0,0.428756,2.975399,-
 0.046602\C,0,0.398749,-2.973631,-0.063676\C,0,2.709059,2.370496,0.0422
 86\C,0,2.685437,-2.392871,0.022148\C,0,3.612802,-1.258329,0.063032\C,0
 ,3.625038,1.226484,0.074159\C,0,5.026887,1.184637,0.123314\C,0,3.07233
 7,3.724956,0.058798\C,0,2.092345,4.709726,0.020417\C,0,0.74498,4.33083
 9,-0.035451\C,0,5.014989,-1.230647,0.112194\C,0,5.723602,-0.026575,0.1
 42658\C,0,3.034924,-3.751151,0.020208\C,0,2.044754,-4.725434,-0.024916
 \H,0,4.086755,-4.028899,0.051962\C,0,0.700942,-4.332187,-0.06618\C,0,2
 .958548,-0.012537,0.045884\F,0,5.721231,-2.369922,0.130392\F,0,5.74430
 6,2.316718,0.152261\H,0,-0.628075,-2.608296,-0.098527\C,0,-0.398457,-5
 .36228,-0.086817\H,0,2.317868,-5.782506,-0.030833\H,0,-0.601877,2.6210
 14,-0.083278\C,0,-0.341058,5.372771,-0.108014\H,0,4.126637,3.99134,0.1
 02923\H,0,2.375744,5.7639,0.037457\C,0,-2.277388,0.010047,-0.060642\C,
 0,-3.707803,0.013889,-0.028194\C,0,-4.447523,1.218102,0.023999\C,0,-4.
 45558,-1.186483,-0.034584\C,0,-5.837091,1.229509,0.071927\C,0,-5.84523
 5,-1.190852,0.01257\C,0,-6.585491,0.021157,0.070201\N,0,-7.961809,0.02
 453,0.122795\H,0,6.813007,-0.032126,0.180343\F,0,-0.164121,6.329015,0.
 821111\F,0,-1.561973,4.845788,0.078463\F,0,-0.351158,5.992134,-1.30357
 4\F,0,-1.600001,-4.815854,-0.333542\F,0,-0.487575,-6.010889,1.089708\F
 ,0,-0.175967,-6.29735,-1.027787\H,0,-3.910527,2.170366,0.029839\H,0,-6
 .346824,2.1915,0.112978\H,0,-6.361574,-2.1502,0.005956\H,0,-3.925014,-
 2.141478,-0.075718\C,0,-8.685382,1.280514,0.185956\C,0,-8.693844,-1.22
 8145,0.124189\H,0,-8.491668,1.917746,-0.696229\H,0,-8.422404,1.868759,
 1.084316\H,0,-9.762669,1.077962,0.222194\H,0,-8.432484,-1.862718,0.990
 876\H,0,-8.506737,-1.821219,-0.789689\H,0,-9.76963,-1.020469,0.17373\\
 Version=EM64L-G09RevD.01\State=1-A\HF=-2155.7438186\RMSD=8.484e-09\Dip
 ole=1.4587097,-0.0111363,0.170517\Polar=887.9121893,-0.4177075,676.524
 5584,2.5639437,2.9549027,244.2119751\HyperPolar=39965.1374756,-128.868
 4757,1083.6786105,-2.078219,-221.744362,-19.4683914,-68.2068581,-80.41
 41165,-0.3805197,-18.9079935\Quadrupole=35.5208249,-5.015622,-30.50520
 29,-0.1212345,-0.9491505,0.7842512\PG=C01 [X(C28H17F8N3Pt1)]\\@


 I FIND THAT THE THREE TRULY GREAT TIMES FOR THINKING THOUGHTS
 ARE WHEN I AM STANDING IN THE SHOWER, SITTING ON THE JOHN, OR WALKING.

                                    -- COLIN FLETCHER
 Job cpu time:       0 days 16 hours 36 minutes  5.5 seconds.
 File lengths (MBytes):  RWF=   3963 Int=      0 D2E=      0 Chk=     22 Scr=      1
 Normal termination of Gaussian 09 at Sat Feb  4 07:00:46 2023.
