 Entering Gaussian System, Link 0=g16
 Input=/home/nqtcm/NLOMILENA/OPT_B3LYP_LANL2TZF_def2SVP_ONL_B3LYP_PtmDZP_def2SVP_IEFPCM.com
 Output=/home/nqtcm/NLOMILENA/OPT_B3LYP_LANL2TZF_def2SVP_ONL_B3LYP_PtmDZP_def2SVP_IEFPCM.log
 Initial command:
 /scr/programas/g16/l1.exe "/scr/nqtcm/Gau-18866.inp" -scrdir="/scr/nqtcm/"
 Entering Link 1 = /scr/programas/g16/l1.exe PID=     18868.
  
 Copyright (c) 1988-2019, Gaussian, Inc.  All Rights Reserved.
  
 This is part of the Gaussian(R) 16 program.  It is based on
 the Gaussian(R) 09 system (copyright 2009, Gaussian, Inc.),
 the Gaussian(R) 03 system (copyright 2003, Gaussian, Inc.),
 the Gaussian(R) 98 system (copyright 1998, Gaussian, Inc.),
 the Gaussian(R) 94 system (copyright 1995, Gaussian, Inc.),
 the Gaussian 92(TM) system (copyright 1992, Gaussian, Inc.),
 the Gaussian 90(TM) system (copyright 1990, Gaussian, Inc.),
 the Gaussian 88(TM) system (copyright 1988, Gaussian, Inc.),
 the Gaussian 86(TM) system (copyright 1986, Carnegie Mellon
 University), and the Gaussian 82(TM) system (copyright 1983,
 Carnegie Mellon University). Gaussian is a federally registered
 trademark of Gaussian, Inc.
  
 This software contains proprietary and confidential information,
 including trade secrets, belonging to Gaussian, Inc.
  
 This software is provided under written license and may be
 used, copied, transmitted, or stored only in accord with that
 written license.
  
 The following legend is applicable only to US Government
 contracts under FAR:
  
                    RESTRICTED RIGHTS LEGEND
  
 Use, reproduction and disclosure by the US Government is
 subject to restrictions as set forth in subparagraphs (a)
 and (c) of the Commercial Computer Software - Restricted
 Rights clause in FAR 52.227-19.
  
 Gaussian, Inc.
 340 Quinnipiac St., Bldg. 40, Wallingford CT 06492
  
  
 ---------------------------------------------------------------
 Warning -- This program may not be used in any manner that
 competes with the business of Gaussian, Inc. or will provide
 assistance to any competitor of Gaussian, Inc.  The licensee
 of this program is prohibited from giving any competitor of
 Gaussian, Inc. access to this program.  By using this program,
 the user acknowledges that Gaussian, Inc. is engaged in the
 business of creating and licensing software in the field of
 computational chemistry and represents and warrants to the
 licensee that it is not a competitor of Gaussian, Inc. and that
 it will not use this program in any manner prohibited above.
 ---------------------------------------------------------------
  

 Cite this work as:
 Gaussian 16, Revision C.01,
 M. J. Frisch, G. W. Trucks, H. B. Schlegel, G. E. Scuseria, 
 M. A. Robb, J. R. Cheeseman, G. Scalmani, V. Barone, 
 G. A. Petersson, H. Nakatsuji, X. Li, M. Caricato, A. V. Marenich, 
 J. Bloino, B. G. Janesko, R. Gomperts, B. Mennucci, H. P. Hratchian, 
 J. V. Ortiz, A. F. Izmaylov, J. L. Sonnenberg, D. Williams-Young, 
 F. Ding, F. Lipparini, F. Egidi, J. Goings, B. Peng, A. Petrone, 
 T. Henderson, D. Ranasinghe, V. G. Zakrzewski, J. Gao, N. Rega, 
 G. Zheng, W. Liang, M. Hada, M. Ehara, K. Toyota, R. Fukuda, 
 J. Hasegawa, M. Ishida, T. Nakajima, Y. Honda, O. Kitao, H. Nakai, 
 T. Vreven, K. Throssell, J. A. Montgomery, Jr., J. E. Peralta, 
 F. Ogliaro, M. J. Bearpark, J. J. Heyd, E. N. Brothers, K. N. Kudin, 
 V. N. Staroverov, T. A. Keith, R. Kobayashi, J. Normand, 
 K. Raghavachari, A. P. Rendell, J. C. Burant, S. S. Iyengar, 
 J. Tomasi, M. Cossi, J. M. Millam, M. Klene, C. Adamo, R. Cammi, 
 J. W. Ochterski, R. L. Martin, K. Morokuma, O. Farkas, 
 J. B. Foresman, and D. J. Fox, Gaussian, Inc., Wallingford CT, 2019.
 
 ******************************************
 Gaussian 16:  EM64L-G16RevC.01  3-Jul-2019
                12-Apr-2023 
 ******************************************
 %chk=OPT_B3LYP_LANL2TZF_def2SVP_ONL_B3LYP_PtmDZP_def2SVP_IEFPCM.chk
 %mem=60Gb
 %nproc=12
 Will use up to   12 processors via shared memory.
 ----------------------------------------------------------------------
 #p B3LYP/gen gfinput Integral(Grid=UltraFine,Acc2E=12) scf=maxcycle=20
 0 Polar=(DCSHG) CPHF=RdFreq scrf=(iefpcm,solvent=n,n-DiMethylFormamide
 )
 ----------------------------------------------------------------------
 1/38=1,83=1,172=1/1;
 2/12=2,17=6,18=5,40=1/2;
 3/5=7,11=2,24=10,25=1,27=12,30=1,70=2201,72=148,74=-5,75=-5/1,2,3;
 4//1;
 5/5=2,7=200,38=5,53=148,87=12,98=1/2;
 8/6=4,10=90,11=11,87=12/1;
 10/6=20001,13=10,72=3,87=12/2;
 6/7=2,8=2,9=2,10=2,28=1,87=12/1;
 99/5=1,9=1/99;
 Leave Link    1 at Wed Apr 12 13:46:16 2023, MaxMem=  8053063680 cpu:               0.4 elap:               0.0
 (Enter /scr/programas/g16/l101.exe)
 ------------------------------
 Primeira Hiperpolarizabilidade
 ------------------------------
 Symbolic Z-matrix:
 Charge =  0 Multiplicity = 1
 Pt                    1.0081   -0.00255  -0.02356 
 C                    -1.04078   0.00667  -0.07373 
 N                     1.35187  -2.03059  -0.02185 
 N                     1.37195   2.02225  -0.00871 
 C                     0.42876   2.9754   -0.0466 
 C                     0.39875  -2.97363  -0.06368 
 C                     2.70906   2.3705    0.04229 
 C                     2.68544  -2.39287   0.02215 
 C                     3.6128   -1.25833   0.06303 
 C                     3.62504   1.22648   0.07416 
 C                     5.02689   1.18464   0.12331 
 C                     3.07234   3.72496   0.0588 
 C                     2.09234   4.70973   0.02042 
 C                     0.74498   4.33084  -0.03545 
 C                     5.01499  -1.23065   0.11219 
 C                     5.7236   -0.02658   0.14266 
 C                     3.03492  -3.75115   0.02021 
 C                     2.04475  -4.72543  -0.02492 
 H                     4.08676  -4.0289    0.05196 
 C                     0.70094  -4.33219  -0.06618 
 C                     2.95855  -0.01254   0.04588 
 F                     5.72123  -2.36992   0.13039 
 F                     5.74431   2.31672   0.15226 
 H                    -0.62808  -2.6083   -0.09853 
 C                    -0.39846  -5.36228  -0.08682 
 H                     2.31787  -5.78251  -0.03083 
 H                    -0.60188   2.62101  -0.08328 
 C                    -0.34106   5.37277  -0.10801 
 H                     4.12664   3.99134   0.10292 
 H                     2.37574   5.7639    0.03746 
 C                    -2.27739   0.01005  -0.06064 
 C                    -3.7078    0.01389  -0.02819 
 C                    -4.44752   1.2181    0.024 
 C                    -4.45558  -1.18648  -0.03458 
 C                    -5.83709   1.22951   0.07193 
 C                    -5.84524  -1.19085   0.01257 
 C                    -6.58549   0.02116   0.0702 
 N                    -7.96181   0.02453   0.1228 
 H                     6.81301  -0.03213   0.18034 
 F                    -0.16412   6.32902   0.82111 
 F                    -1.56197   4.84579   0.07846 
 F                    -0.35116   5.99213  -1.30357 
 F                    -1.6      -4.81585  -0.33354 
 F                    -0.48758  -6.01089   1.08971 
 F                    -0.17597  -6.29735  -1.02779 
 H                    -3.91053   2.17037   0.02984 
 H                    -6.34682   2.1915    0.11298 
 H                    -6.36157  -2.1502    0.00596 
 H                    -3.92501  -2.14148  -0.07572 
 C                    -8.68538   1.28051   0.18596 
 C                    -8.69384  -1.22815   0.12419 
 H                    -8.49167   1.91775  -0.69623 
 H                    -8.4224    1.86876   1.08432 
 H                    -9.76267   1.07796   0.22219 
 H                    -8.43248  -1.86272   0.99088 
 H                    -8.50674  -1.82122  -0.78969 
 H                    -9.76963  -1.02047   0.17373 
 
 ITRead=  0  0  0  0  0  0  0  0  0  0  0  0  0  0  0  0  0  0  0  0
 ITRead=  0  0  0  0  0  0  0  0  0  0  0  0  0  0  0  0  0  0  0  0
 ITRead=  0  0  0  0  0  0  0  0  0  0  0  0  0  0  0  0  0
 MicOpt= -1 -1 -1 -1 -1 -1 -1 -1 -1 -1 -1 -1 -1 -1 -1 -1 -1 -1 -1 -1
 MicOpt= -1 -1 -1 -1 -1 -1 -1 -1 -1 -1 -1 -1 -1 -1 -1 -1 -1 -1 -1 -1
 MicOpt= -1 -1 -1 -1 -1 -1 -1 -1 -1 -1 -1 -1 -1 -1 -1 -1 -1
 NAtoms=     57 NQM=       57 NQMF=       0 NMMI=      0 NMMIF=      0
                NMic=       0 NMicF=      0.
                    Isotopes and Nuclear Properties:
 (Nuclear quadrupole moments (NQMom) in fm**2, nuclear magnetic moments (NMagM)
  in nuclear magnetons)

  Atom         1           2           3           4           5           6           7           8           9          10
 IAtWgt=         195          12          14          14          12          12          12          12          12          12
 AtmWgt= 194.9648000  12.0000000  14.0030740  14.0030740  12.0000000  12.0000000  12.0000000  12.0000000  12.0000000  12.0000000
 NucSpn=           1           0           2           2           0           0           0           0           0           0
 AtZEff=  -0.0000000  -0.0000000  -0.0000000  -0.0000000  -0.0000000  -0.0000000  -0.0000000  -0.0000000  -0.0000000  -0.0000000
 NQMom=    0.0000000   0.0000000   2.0440000   2.0440000   0.0000000   0.0000000   0.0000000   0.0000000   0.0000000   0.0000000
 NMagM=    0.6095000   0.0000000   0.4037610   0.4037610   0.0000000   0.0000000   0.0000000   0.0000000   0.0000000   0.0000000
 AtZNuc=  78.0000000   6.0000000   7.0000000   7.0000000   6.0000000   6.0000000   6.0000000   6.0000000   6.0000000   6.0000000

  Atom        11          12          13          14          15          16          17          18          19          20
 IAtWgt=          12          12          12          12          12          12          12          12           1          12
 AtmWgt=  12.0000000  12.0000000  12.0000000  12.0000000  12.0000000  12.0000000  12.0000000  12.0000000   1.0078250  12.0000000
 NucSpn=           0           0           0           0           0           0           0           0           1           0
 AtZEff=  -0.0000000  -0.0000000  -0.0000000  -0.0000000  -0.0000000  -0.0000000  -0.0000000  -0.0000000  -0.0000000  -0.0000000
 NQMom=    0.0000000   0.0000000   0.0000000   0.0000000   0.0000000   0.0000000   0.0000000   0.0000000   0.0000000   0.0000000
 NMagM=    0.0000000   0.0000000   0.0000000   0.0000000   0.0000000   0.0000000   0.0000000   0.0000000   2.7928460   0.0000000
 AtZNuc=   6.0000000   6.0000000   6.0000000   6.0000000   6.0000000   6.0000000   6.0000000   6.0000000   1.0000000   6.0000000

  Atom        21          22          23          24          25          26          27          28          29          30
 IAtWgt=          12          19          19           1          12           1           1          12           1           1
 AtmWgt=  12.0000000  18.9984033  18.9984033   1.0078250  12.0000000   1.0078250   1.0078250  12.0000000   1.0078250   1.0078250
 NucSpn=           0           1           1           1           0           1           1           0           1           1
 AtZEff=  -0.0000000  -0.0000000  -0.0000000  -0.0000000  -0.0000000  -0.0000000  -0.0000000  -0.0000000  -0.0000000  -0.0000000
 NQMom=    0.0000000   0.0000000   0.0000000   0.0000000   0.0000000   0.0000000   0.0000000   0.0000000   0.0000000   0.0000000
 NMagM=    0.0000000   2.6288670   2.6288670   2.7928460   0.0000000   2.7928460   2.7928460   0.0000000   2.7928460   2.7928460
 AtZNuc=   6.0000000   9.0000000   9.0000000   1.0000000   6.0000000   1.0000000   1.0000000   6.0000000   1.0000000   1.0000000

  Atom        31          32          33          34          35          36          37          38          39          40
 IAtWgt=          12          12          12          12          12          12          12          14           1          19
 AtmWgt=  12.0000000  12.0000000  12.0000000  12.0000000  12.0000000  12.0000000  12.0000000  14.0030740   1.0078250  18.9984033
 NucSpn=           0           0           0           0           0           0           0           2           1           1
 AtZEff=  -0.0000000  -0.0000000  -0.0000000  -0.0000000  -0.0000000  -0.0000000  -0.0000000  -0.0000000  -0.0000000  -0.0000000
 NQMom=    0.0000000   0.0000000   0.0000000   0.0000000   0.0000000   0.0000000   0.0000000   2.0440000   0.0000000   0.0000000
 NMagM=    0.0000000   0.0000000   0.0000000   0.0000000   0.0000000   0.0000000   0.0000000   0.4037610   2.7928460   2.6288670
 AtZNuc=   6.0000000   6.0000000   6.0000000   6.0000000   6.0000000   6.0000000   6.0000000   7.0000000   1.0000000   9.0000000

  Atom        41          42          43          44          45          46          47          48          49          50
 IAtWgt=          19          19          19          19          19           1           1           1           1          12
 AtmWgt=  18.9984033  18.9984033  18.9984033  18.9984033  18.9984033   1.0078250   1.0078250   1.0078250   1.0078250  12.0000000
 NucSpn=           1           1           1           1           1           1           1           1           1           0
 AtZEff=  -0.0000000  -0.0000000  -0.0000000  -0.0000000  -0.0000000  -0.0000000  -0.0000000  -0.0000000  -0.0000000  -0.0000000
 NQMom=    0.0000000   0.0000000   0.0000000   0.0000000   0.0000000   0.0000000   0.0000000   0.0000000   0.0000000   0.0000000
 NMagM=    2.6288670   2.6288670   2.6288670   2.6288670   2.6288670   2.7928460   2.7928460   2.7928460   2.7928460   0.0000000
 AtZNuc=   9.0000000   9.0000000   9.0000000   9.0000000   9.0000000   1.0000000   1.0000000   1.0000000   1.0000000   6.0000000

  Atom        51          52          53          54          55          56          57
 IAtWgt=          12           1           1           1           1           1           1
 AtmWgt=  12.0000000   1.0078250   1.0078250   1.0078250   1.0078250   1.0078250   1.0078250
 NucSpn=           0           1           1           1           1           1           1
 AtZEff=  -0.0000000  -0.0000000  -0.0000000  -0.0000000  -0.0000000  -0.0000000  -0.0000000
 NQMom=    0.0000000   0.0000000   0.0000000   0.0000000   0.0000000   0.0000000   0.0000000
 NMagM=    0.0000000   2.7928460   2.7928460   2.7928460   2.7928460   2.7928460   2.7928460
 AtZNuc=   6.0000000   1.0000000   1.0000000   1.0000000   1.0000000   1.0000000   1.0000000
 Using perturbation frequencies:    0.000000    0.023893
 Leave Link  101 at Wed Apr 12 13:46:16 2023, MaxMem=  8053063680 cpu:               1.2 elap:               0.1
 (Enter /scr/programas/g16/l202.exe)
 Stoichiometry    C28H17F8N3Pt
 Framework group  C1[X(C28H17F8N3Pt)]
 Deg. of freedom   165
 Full point group                 C1      NOp   1
 Largest Abelian subgroup         C1      NOp   1
 Largest concise Abelian subgroup C1      NOp   1
                         Standard orientation:                         
 ---------------------------------------------------------------------
 Center     Atomic      Atomic             Coordinates (Angstroms)
 Number     Number       Type             X           Y           Z
 ---------------------------------------------------------------------
      1         78           0       -1.008098   -0.002554    0.023564
      2          6           0        1.040778    0.006667    0.073725
      3          7           0       -1.351872   -2.030588    0.021851
      4          7           0       -1.371945    2.022246    0.008714
      5          6           0       -0.428755    2.975399    0.046602
      6          6           0       -0.398749   -2.973631    0.063676
      7          6           0       -2.709059    2.370497   -0.042286
      8          6           0       -2.685437   -2.392870   -0.022148
      9          6           0       -3.612802   -1.258328   -0.063032
     10          6           0       -3.625038    1.226485   -0.074159
     11          6           0       -5.026887    1.184638   -0.123314
     12          6           0       -3.072336    3.724957   -0.058798
     13          6           0       -2.092344    4.709726   -0.020417
     14          6           0       -0.744979    4.330839    0.035451
     15          6           0       -5.014989   -1.230646   -0.112194
     16          6           0       -5.723602   -0.026574   -0.142658
     17          6           0       -3.034925   -3.751150   -0.020208
     18          6           0       -2.044755   -4.725434    0.024916
     19          1           0       -4.086756   -4.028898   -0.051962
     20          6           0       -0.700943   -4.332187    0.066180
     21          6           0       -2.958548   -0.012536   -0.045884
     22          9           0       -5.721231   -2.369921   -0.130392
     23          9           0       -5.744306    2.316719   -0.152261
     24          1           0        0.628075   -2.608296    0.098527
     25          6           0        0.398456   -5.362280    0.086817
     26          1           0       -2.317869   -5.782506    0.030833
     27          1           0        0.601877    2.621014    0.083278
     28          6           0        0.341059    5.372771    0.108014
     29          1           0       -4.126636    3.991341   -0.102923
     30          1           0       -2.375743    5.763900   -0.037457
     31          6           0        2.277388    0.010047    0.060642
     32          6           0        3.707803    0.013889    0.028194
     33          6           0        4.447523    1.218101   -0.023999
     34          6           0        4.455580   -1.186484    0.034584
     35          6           0        5.837091    1.229508   -0.071927
     36          6           0        5.845235   -1.190853   -0.012570
     37          6           0        6.585491    0.021156   -0.070201
     38          7           0        7.961809    0.024529   -0.122795
     39          1           0       -6.813007   -0.032125   -0.180343
     40          9           0        0.164122    6.329015   -0.821111
     41          9           0        1.561974    4.845788   -0.078463
     42          9           0        0.351159    5.992134    1.303574
     43          9           0        1.600000   -4.815854    0.333542
     44          9           0        0.487574   -6.010889   -1.089708
     45          9           0        0.175966   -6.297350    1.027787
     46          1           0        3.910527    2.170366   -0.029839
     47          1           0        6.346824    2.191499   -0.112978
     48          1           0        6.361574   -2.150201   -0.005956
     49          1           0        3.925014   -2.141478    0.075718
     50          6           0        8.685382    1.280513   -0.185956
     51          6           0        8.693844   -1.228146   -0.124189
     52          1           0        8.491668    1.917745    0.696229
     53          1           0        8.422404    1.868758   -1.084316
     54          1           0        9.762669    1.077961   -0.222194
     55          1           0        8.432484   -1.862719   -0.990876
     56          1           0        8.506737   -1.821220    0.789689
     57          1           0        9.769630   -1.020470   -0.173730
 ---------------------------------------------------------------------
 Rotational constants (GHZ):           0.0734786           0.0557567           0.0320899
 Leave Link  202 at Wed Apr 12 13:46:16 2023, MaxMem=  8053063680 cpu:               0.1 elap:               0.0
 (Enter /scr/programas/g16/l301.exe)
 General basis read from cards:  (5D, 7F)
 Centers:      19     24     26     27     29     30     39     46     47     48
 Centers:      49     52     53     54     55     56     57
 S 3 1.00
     Exponent=  1.3010701000D+01 Coefficients=  1.9682158000D-02
     Exponent=  1.9622572000D+00 Coefficients=  1.3796524000D-01
     Exponent=  4.4453796000D-01 Coefficients=  4.7831935000D-01
 S 1 1.00
     Exponent=  1.2194962000D-01 Coefficients=  1.0000000000D+00
 P 1 1.00
     Exponent=  8.0000000000D-01 Coefficients=  1.0000000000D+00
 ****
 Centers:       2      5      6      7      8      9     10     11     12     13
 Centers:      14     15     16     17     18     20     21     25     28     31
 Centers:      32     33     34     35     36     37     50     51
 S 5 1.00
     Exponent=  1.2384016938D+03 Coefficients=  5.4568832082D-03
     Exponent=  1.8629004992D+02 Coefficients=  4.0638409211D-02
     Exponent=  4.2251176346D+01 Coefficients=  1.8025593888D-01
     Exponent=  1.1676557932D+01 Coefficients=  4.6315121755D-01
     Exponent=  3.5930506482D+00 Coefficients=  4.4087173314D-01
 S 1 1.00
     Exponent=  4.0245147363D-01 Coefficients=  1.0000000000D+00
 S 1 1.00
     Exponent=  1.3090182668D-01 Coefficients=  1.0000000000D+00
 P 3 1.00
     Exponent=  9.4680970621D+00 Coefficients=  3.8387871728D-02
     Exponent=  2.0103545142D+00 Coefficients=  2.1117025112D-01
     Exponent=  5.4771004707D-01 Coefficients=  5.1328172114D-01
 P 1 1.00
     Exponent=  1.5268613795D-01 Coefficients=  1.0000000000D+00
 D 1 1.00
     Exponent=  8.0000000000D-01 Coefficients=  1.0000000000D+00
 ****
 Centers:       3      4     38
 S 5 1.00
     Exponent=  1.7128415853D+03 Coefficients= -5.3934125305D-03
     Exponent=  2.5764812677D+02 Coefficients= -4.0221581118D-02
     Exponent=  5.8458245853D+01 Coefficients= -1.7931144990D-01
     Exponent=  1.6198367905D+01 Coefficients= -4.6376317823D-01
     Exponent=  5.0052600809D+00 Coefficients= -4.4171422662D-01
 S 1 1.00
     Exponent=  5.8731856571D-01 Coefficients=  1.0000000000D+00
 S 1 1.00
     Exponent=  1.8764592253D-01 Coefficients=  1.0000000000D+00
 P 3 1.00
     Exponent=  1.3571470233D+01 Coefficients= -4.0072398852D-02
     Exponent=  2.9257372874D+00 Coefficients= -2.1807045028D-01
     Exponent=  7.9927750754D-01 Coefficients= -5.1294466049D-01
 P 1 1.00
     Exponent=  2.1954348034D-01 Coefficients=  1.0000000000D+00
 D 1 1.00
     Exponent=  1.0000000000D+00 Coefficients=  1.0000000000D+00
 ****
 Centers:      22     23     40     41     42     43     44     45
 S 5 1.00
     Exponent=  2.8948325990D+03 Coefficients= -5.3408255515D-03
     Exponent=  4.3541939120D+02 Coefficients= -3.9904258866D-02
     Exponent=  9.8843328866D+01 Coefficients= -1.7912768038D-01
     Exponent=  2.7485198001D+01 Coefficients= -4.6758090825D-01
     Exponent=  8.5405498171D+00 Coefficients= -4.4653131020D-01
 S 1 1.00
     Exponent=  1.0654578038D+00 Coefficients=  1.0000000000D+00
 S 1 1.00
     Exponent=  3.3247346748D-01 Coefficients=  1.0000000000D+00
 P 3 1.00
     Exponent=  2.2696633924D+01 Coefficients= -4.5212874436D-02
     Exponent=  4.9872339257D+00 Coefficients= -2.3754317067D-01
     Exponent=  1.3491613954D+00 Coefficients= -5.1287353587D-01
 P 1 1.00
     Exponent=  3.4829881977D-01 Coefficients=  1.0000000000D+00
 D 1 1.00
     Exponent=  1.4000000000D+00 Coefficients=  1.0000000000D+00
 ****
 Centers:       1
 S 10 1.00
     Exponent=  2.7918080765D+06 Coefficients=  1.9120000000D-04
     Exponent=  8.8248758526D+05 Coefficients=  3.8400000000D-04
     Exponent=  2.7895339393D+05 Coefficients=  2.4520000000D-03
     Exponent=  8.3026905757D+04 Coefficients=  8.5909000000D-03
     Exponent=  3.3189870403D+04 Coefficients=  2.2429900000D-02
     Exponent=  1.3267596658D+04 Coefficients=  6.9280400000D-02
     Exponent=  5.3037001635D+03 Coefficients=  1.7787660000D-01
     Exponent=  2.1813080527D+03 Coefficients=  3.4464460000D-01
     Exponent=  9.2884325487D+02 Coefficients=  3.8190500000D-01
     Exponent=  3.9551946414D+02 Coefficients=  1.3862520000D-01
 S 1 1.00
     Exponent=  1.6841985523D+02 Coefficients=  1.0000000000D+00
 S 1 1.00
     Exponent=  7.1716439280D+01 Coefficients= -1.0000000000D+00
 S 2 1.00
     Exponent=  3.0538250110D+01 Coefficients= -7.2356540000D-01
     Exponent=  1.3003778900D+01 Coefficients= -3.0335010000D-01
 S 2 1.00
     Exponent=  5.5372611400D+00 Coefficients= -8.2104690000D-01
     Exponent=  2.3578731400D+00 Coefficients= -1.9906250000D-01
 S 2 1.00
     Exponent=  1.0040280900D+00 Coefficients=  8.1445420000D-01
     Exponent=  4.2753462000D-01 Coefficients=  2.0620380000D-01
 S 1 1.00
     Exponent=  1.8205253000D-01 Coefficients= -1.0000000000D+00
 S 1 1.00
     Exponent=  7.7521500000D-02 Coefficients=  1.0000000000D+00
 P 7 1.00
     Exponent=  2.5389728971D+04 Coefficients=  1.0889000000D-03
     Exponent=  7.4043281992D+03 Coefficients=  6.7513000000D-03
     Exponent=  2.6136944565D+03 Coefficients=  3.2640100000D-02
     Exponent=  1.0629677083D+03 Coefficients=  1.1057620000D-01
     Exponent=  4.7267119558D+02 Coefficients=  2.7059270000D-01
     Exponent=  2.1847683705D+02 Coefficients=  4.3314820000D-01
     Exponent=  1.0098378910D+02 Coefficients=  3.0399230000D-01
 P 2 1.00
     Exponent=  4.6676461440D+01 Coefficients=  6.2343840000D-01
     Exponent=  2.1574671260D+01 Coefficients=  4.1905890000D-01
 P 2 1.00
     Exponent=  9.9721878200D+00 Coefficients=  4.7869350000D-01
     Exponent=  4.6093184300D+00 Coefficients=  5.6529180000D-01
 P 2 1.00
     Exponent=  2.1305070400D+00 Coefficients=  3.6841680000D-01
     Exponent=  9.8475736000D-01 Coefficients=  6.7189180000D-01
 P 1 1.00
     Exponent=  4.5517196000D-01 Coefficients=  1.0000000000D+00
 P 1 1.00
     Exponent=  1.2639299000D-01 Coefficients=  1.0000000000D+00
 P 1 1.00
     Exponent=  4.7125980000D-02 Coefficients=  1.0000000000D+00
 D 5 1.00
     Exponent=  9.4474967668D+02 Coefficients=  1.4238400000D-02
     Exponent=  2.9859854131D+02 Coefficients=  9.5430600000D-02
     Exponent=  1.1341571932D+02 Coefficients=  3.3188520000D-01
     Exponent=  4.6721292360D+01 Coefficients=  5.0639130000D-01
     Exponent=  2.0498259910D+01 Coefficients=  2.5147200000D-01
 D 2 1.00
     Exponent=  7.6290246000D+00 Coefficients=  8.8346920000D-01
     Exponent=  2.8393637600D+00 Coefficients=  1.6431800000D-01
 D 1 1.00
     Exponent=  1.0567519400D+00 Coefficients=  1.0000000000D+00
 D 1 1.00
     Exponent=  3.9330102000D-01 Coefficients=  1.0000000000D+00
 D 1 1.00
     Exponent=  1.4637843200D-01 Coefficients=  1.0000000000D+00
 F 4 1.00
     Exponent=  8.1713563170D+01 Coefficients=  7.9312200000D-02
     Exponent=  2.6014654140D+01 Coefficients=  3.3523320000D-01
     Exponent=  9.2416459200D+00 Coefficients=  5.4534950000D-01
     Exponent=  3.0833602700D+00 Coefficients=  3.4527520000D-01
 F 1 1.00
     Exponent=  8.4883040000D-01 Coefficients=  1.0000000000D+00
 ****
 Ernie: Thresh=  0.10000D-02 Tol=  0.10000D-05 Strict=F.
 AO basis set in the form of general basis input (Overlap normalization):
      1 0
 S  10 1.00       0.000000000000
      0.2791808077D+07  0.1911999859D-03
      0.8824875853D+06  0.3839999717D-03
      0.2789533939D+06  0.2451999819D-02
      0.8302690576D+05  0.8590899367D-02
      0.3318987040D+05  0.2242989835D-01
      0.1326759666D+05  0.6928039490D-01
      0.5303700163D+04  0.1778765869D+00
      0.2181308053D+04  0.3446445746D+00
      0.9288432549D+03  0.3819049719D+00
      0.3955194641D+03  0.1386251898D+00
 S   2 1.00       0.000000000000
      0.3053825011D+02 -0.7235654370D+00
      0.1300377890D+02 -0.3033501155D+00
 S   2 1.00       0.000000000000
      0.5537261140D+01 -0.8210469151D+00
      0.2357873140D+01 -0.1990625037D+00
 S   2 1.00       0.000000000000
      0.1004028090D+01  0.8144541699D+00
      0.4275346200D+00  0.2062037924D+00
 S   1 1.00       0.000000000000
      0.1684198552D+03  0.1000000000D+01
 S   1 1.00       0.000000000000
      0.7171643928D+02 -0.1000000000D+01
 S   1 1.00       0.000000000000
      0.1820525300D+00 -0.1000000000D+01
 S   1 1.00       0.000000000000
      0.7752150000D-01  0.1000000000D+01
 P   7 1.00       0.000000000000
      0.2538972897D+05  0.1088900018D-02
      0.7404328199D+04  0.6751300114D-02
      0.2613694456D+04  0.3264010055D-01
      0.1062967708D+04  0.1105762019D+00
      0.4726711956D+03  0.2705927046D+00
      0.2184768371D+03  0.4331482073D+00
      0.1009837891D+03  0.3039923051D+00
 P   2 1.00       0.000000000000
      0.4667646144D+02  0.6234384408D+00
      0.2157467126D+02  0.4190589274D+00
 P   2 1.00       0.000000000000
      0.9972187820D+01  0.4786934880D+00
      0.4609318430D+01  0.5652917858D+00
 P   2 1.00       0.000000000000
      0.2130507040D+01  0.3684168021D+00
      0.9847573600D+00  0.6718918039D+00
 P   1 1.00       0.000000000000
      0.4551719600D+00  0.1000000000D+01
 P   1 1.00       0.000000000000
      0.1263929900D+00  0.1000000000D+01
 P   1 1.00       0.000000000000
      0.4712598000D-01  0.1000000000D+01
 D   5 1.00       0.000000000000
      0.9447496767D+03  0.1423840071D-01
      0.2985985413D+03  0.9543060475D-01
      0.1134157193D+03  0.3318852165D+00
      0.4672129236D+02  0.5063913252D+00
      0.2049825991D+02  0.2514720125D+00
 D   2 1.00       0.000000000000
      0.7629024600D+01  0.8834691739D+00
      0.2839363760D+01  0.1643179951D+00
 D   1 1.00       0.000000000000
      0.1056751940D+01  0.1000000000D+01
 D   1 1.00       0.000000000000
      0.3933010200D+00  0.1000000000D+01
 D   1 1.00       0.000000000000
      0.1463784320D+00  0.1000000000D+01
 F   4 1.00       0.000000000000
      0.8171356317D+02  0.7931219693D-01
      0.2601465414D+02  0.3352331870D+00
      0.9241645920D+01  0.5453494789D+00
      0.3083360270D+01  0.3452751867D+00
 F   1 1.00       0.000000000000
      0.8488304000D+00  0.1000000000D+01
 ****
      2 0
 S   5 1.00       0.000000000000
      0.1238401694D+04  0.5517365048D-02
      0.1862900499D+03  0.4108882856D-01
      0.4225117635D+02  0.1822538213D+00
      0.1167655793D+02  0.4682845944D+00
      0.3593050648D+01  0.4457581734D+00
 S   1 1.00       0.000000000000
      0.4024514736D+00  0.1000000000D+01
 S   1 1.00       0.000000000000
      0.1309018267D+00  0.1000000000D+01
 P   3 1.00       0.000000000000
      0.9468097062D+01  0.5688833201D-01
      0.2010354514D+01  0.3129405934D+00
      0.5477100471D+00  0.7606501651D+00
 P   1 1.00       0.000000000000
      0.1526861380D+00  0.1000000000D+01
 D   1 1.00       0.000000000000
      0.8000000000D+00  0.1000000000D+01
 ****
      3 0
 S   5 1.00       0.000000000000
      0.1712841585D+04 -0.5447799580D-02
      0.2576481268D+03 -0.4062717463D-01
      0.5845824585D+02 -0.1811196225D+00
      0.1619836791D+02 -0.4684397556D+00
      0.5005260081D+01 -0.4461684629D+00
 S   1 1.00       0.000000000000
      0.5873185657D+00  0.1000000000D+01
 S   1 1.00       0.000000000000
      0.1876459225D+00  0.1000000000D+01
 P   3 1.00       0.000000000000
      0.1357147023D+02 -0.5884811697D-01
      0.2925737287D+01 -0.3202462476D+00
      0.7992775075D+00 -0.7532822652D+00
 P   1 1.00       0.000000000000
      0.2195434803D+00  0.1000000000D+01
 D   1 1.00       0.000000000000
      0.1000000000D+01  0.1000000000D+01
 ****
      4 0
 S   5 1.00       0.000000000000
      0.1712841585D+04 -0.5447799580D-02
      0.2576481268D+03 -0.4062717463D-01
      0.5845824585D+02 -0.1811196225D+00
      0.1619836791D+02 -0.4684397556D+00
      0.5005260081D+01 -0.4461684629D+00
 S   1 1.00       0.000000000000
      0.5873185657D+00  0.1000000000D+01
 S   1 1.00       0.000000000000
      0.1876459225D+00  0.1000000000D+01
 P   3 1.00       0.000000000000
      0.1357147023D+02 -0.5884811697D-01
      0.2925737287D+01 -0.3202462476D+00
      0.7992775075D+00 -0.7532822652D+00
 P   1 1.00       0.000000000000
      0.2195434803D+00  0.1000000000D+01
 D   1 1.00       0.000000000000
      0.1000000000D+01  0.1000000000D+01
 ****
      5 0
 S   5 1.00       0.000000000000
      0.1238401694D+04  0.5517365048D-02
      0.1862900499D+03  0.4108882856D-01
      0.4225117635D+02  0.1822538213D+00
      0.1167655793D+02  0.4682845944D+00
      0.3593050648D+01  0.4457581734D+00
 S   1 1.00       0.000000000000
      0.4024514736D+00  0.1000000000D+01
 S   1 1.00       0.000000000000
      0.1309018267D+00  0.1000000000D+01
 P   3 1.00       0.000000000000
      0.9468097062D+01  0.5688833201D-01
      0.2010354514D+01  0.3129405934D+00
      0.5477100471D+00  0.7606501651D+00
 P   1 1.00       0.000000000000
      0.1526861380D+00  0.1000000000D+01
 D   1 1.00       0.000000000000
      0.8000000000D+00  0.1000000000D+01
 ****
      6 0
 S   5 1.00       0.000000000000
      0.1238401694D+04  0.5517365048D-02
      0.1862900499D+03  0.4108882856D-01
      0.4225117635D+02  0.1822538213D+00
      0.1167655793D+02  0.4682845944D+00
      0.3593050648D+01  0.4457581734D+00
 S   1 1.00       0.000000000000
      0.4024514736D+00  0.1000000000D+01
 S   1 1.00       0.000000000000
      0.1309018267D+00  0.1000000000D+01
 P   3 1.00       0.000000000000
      0.9468097062D+01  0.5688833201D-01
      0.2010354514D+01  0.3129405934D+00
      0.5477100471D+00  0.7606501651D+00
 P   1 1.00       0.000000000000
      0.1526861380D+00  0.1000000000D+01
 D   1 1.00       0.000000000000
      0.8000000000D+00  0.1000000000D+01
 ****
      7 0
 S   5 1.00       0.000000000000
      0.1238401694D+04  0.5517365048D-02
      0.1862900499D+03  0.4108882856D-01
      0.4225117635D+02  0.1822538213D+00
      0.1167655793D+02  0.4682845944D+00
      0.3593050648D+01  0.4457581734D+00
 S   1 1.00       0.000000000000
      0.4024514736D+00  0.1000000000D+01
 S   1 1.00       0.000000000000
      0.1309018267D+00  0.1000000000D+01
 P   3 1.00       0.000000000000
      0.9468097062D+01  0.5688833201D-01
      0.2010354514D+01  0.3129405934D+00
      0.5477100471D+00  0.7606501651D+00
 P   1 1.00       0.000000000000
      0.1526861380D+00  0.1000000000D+01
 D   1 1.00       0.000000000000
      0.8000000000D+00  0.1000000000D+01
 ****
      8 0
 S   5 1.00       0.000000000000
      0.1238401694D+04  0.5517365048D-02
      0.1862900499D+03  0.4108882856D-01
      0.4225117635D+02  0.1822538213D+00
      0.1167655793D+02  0.4682845944D+00
      0.3593050648D+01  0.4457581734D+00
 S   1 1.00       0.000000000000
      0.4024514736D+00  0.1000000000D+01
 S   1 1.00       0.000000000000
      0.1309018267D+00  0.1000000000D+01
 P   3 1.00       0.000000000000
      0.9468097062D+01  0.5688833201D-01
      0.2010354514D+01  0.3129405934D+00
      0.5477100471D+00  0.7606501651D+00
 P   1 1.00       0.000000000000
      0.1526861380D+00  0.1000000000D+01
 D   1 1.00       0.000000000000
      0.8000000000D+00  0.1000000000D+01
 ****
      9 0
 S   5 1.00       0.000000000000
      0.1238401694D+04  0.5517365048D-02
      0.1862900499D+03  0.4108882856D-01
      0.4225117635D+02  0.1822538213D+00
      0.1167655793D+02  0.4682845944D+00
      0.3593050648D+01  0.4457581734D+00
 S   1 1.00       0.000000000000
      0.4024514736D+00  0.1000000000D+01
 S   1 1.00       0.000000000000
      0.1309018267D+00  0.1000000000D+01
 P   3 1.00       0.000000000000
      0.9468097062D+01  0.5688833201D-01
      0.2010354514D+01  0.3129405934D+00
      0.5477100471D+00  0.7606501651D+00
 P   1 1.00       0.000000000000
      0.1526861380D+00  0.1000000000D+01
 D   1 1.00       0.000000000000
      0.8000000000D+00  0.1000000000D+01
 ****
     10 0
 S   5 1.00       0.000000000000
      0.1238401694D+04  0.5517365048D-02
      0.1862900499D+03  0.4108882856D-01
      0.4225117635D+02  0.1822538213D+00
      0.1167655793D+02  0.4682845944D+00
      0.3593050648D+01  0.4457581734D+00
 S   1 1.00       0.000000000000
      0.4024514736D+00  0.1000000000D+01
 S   1 1.00       0.000000000000
      0.1309018267D+00  0.1000000000D+01
 P   3 1.00       0.000000000000
      0.9468097062D+01  0.5688833201D-01
      0.2010354514D+01  0.3129405934D+00
      0.5477100471D+00  0.7606501651D+00
 P   1 1.00       0.000000000000
      0.1526861380D+00  0.1000000000D+01
 D   1 1.00       0.000000000000
      0.8000000000D+00  0.1000000000D+01
 ****
     11 0
 S   5 1.00       0.000000000000
      0.1238401694D+04  0.5517365048D-02
      0.1862900499D+03  0.4108882856D-01
      0.4225117635D+02  0.1822538213D+00
      0.1167655793D+02  0.4682845944D+00
      0.3593050648D+01  0.4457581734D+00
 S   1 1.00       0.000000000000
      0.4024514736D+00  0.1000000000D+01
 S   1 1.00       0.000000000000
      0.1309018267D+00  0.1000000000D+01
 P   3 1.00       0.000000000000
      0.9468097062D+01  0.5688833201D-01
      0.2010354514D+01  0.3129405934D+00
      0.5477100471D+00  0.7606501651D+00
 P   1 1.00       0.000000000000
      0.1526861380D+00  0.1000000000D+01
 D   1 1.00       0.000000000000
      0.8000000000D+00  0.1000000000D+01
 ****
     12 0
 S   5 1.00       0.000000000000
      0.1238401694D+04  0.5517365048D-02
      0.1862900499D+03  0.4108882856D-01
      0.4225117635D+02  0.1822538213D+00
      0.1167655793D+02  0.4682845944D+00
      0.3593050648D+01  0.4457581734D+00
 S   1 1.00       0.000000000000
      0.4024514736D+00  0.1000000000D+01
 S   1 1.00       0.000000000000
      0.1309018267D+00  0.1000000000D+01
 P   3 1.00       0.000000000000
      0.9468097062D+01  0.5688833201D-01
      0.2010354514D+01  0.3129405934D+00
      0.5477100471D+00  0.7606501651D+00
 P   1 1.00       0.000000000000
      0.1526861380D+00  0.1000000000D+01
 D   1 1.00       0.000000000000
      0.8000000000D+00  0.1000000000D+01
 ****
     13 0
 S   5 1.00       0.000000000000
      0.1238401694D+04  0.5517365048D-02
      0.1862900499D+03  0.4108882856D-01
      0.4225117635D+02  0.1822538213D+00
      0.1167655793D+02  0.4682845944D+00
      0.3593050648D+01  0.4457581734D+00
 S   1 1.00       0.000000000000
      0.4024514736D+00  0.1000000000D+01
 S   1 1.00       0.000000000000
      0.1309018267D+00  0.1000000000D+01
 P   3 1.00       0.000000000000
      0.9468097062D+01  0.5688833201D-01
      0.2010354514D+01  0.3129405934D+00
      0.5477100471D+00  0.7606501651D+00
 P   1 1.00       0.000000000000
      0.1526861380D+00  0.1000000000D+01
 D   1 1.00       0.000000000000
      0.8000000000D+00  0.1000000000D+01
 ****
     14 0
 S   5 1.00       0.000000000000
      0.1238401694D+04  0.5517365048D-02
      0.1862900499D+03  0.4108882856D-01
      0.4225117635D+02  0.1822538213D+00
      0.1167655793D+02  0.4682845944D+00
      0.3593050648D+01  0.4457581734D+00
 S   1 1.00       0.000000000000
      0.4024514736D+00  0.1000000000D+01
 S   1 1.00       0.000000000000
      0.1309018267D+00  0.1000000000D+01
 P   3 1.00       0.000000000000
      0.9468097062D+01  0.5688833201D-01
      0.2010354514D+01  0.3129405934D+00
      0.5477100471D+00  0.7606501651D+00
 P   1 1.00       0.000000000000
      0.1526861380D+00  0.1000000000D+01
 D   1 1.00       0.000000000000
      0.8000000000D+00  0.1000000000D+01
 ****
     15 0
 S   5 1.00       0.000000000000
      0.1238401694D+04  0.5517365048D-02
      0.1862900499D+03  0.4108882856D-01
      0.4225117635D+02  0.1822538213D+00
      0.1167655793D+02  0.4682845944D+00
      0.3593050648D+01  0.4457581734D+00
 S   1 1.00       0.000000000000
      0.4024514736D+00  0.1000000000D+01
 S   1 1.00       0.000000000000
      0.1309018267D+00  0.1000000000D+01
 P   3 1.00       0.000000000000
      0.9468097062D+01  0.5688833201D-01
      0.2010354514D+01  0.3129405934D+00
      0.5477100471D+00  0.7606501651D+00
 P   1 1.00       0.000000000000
      0.1526861380D+00  0.1000000000D+01
 D   1 1.00       0.000000000000
      0.8000000000D+00  0.1000000000D+01
 ****
     16 0
 S   5 1.00       0.000000000000
      0.1238401694D+04  0.5517365048D-02
      0.1862900499D+03  0.4108882856D-01
      0.4225117635D+02  0.1822538213D+00
      0.1167655793D+02  0.4682845944D+00
      0.3593050648D+01  0.4457581734D+00
 S   1 1.00       0.000000000000
      0.4024514736D+00  0.1000000000D+01
 S   1 1.00       0.000000000000
      0.1309018267D+00  0.1000000000D+01
 P   3 1.00       0.000000000000
      0.9468097062D+01  0.5688833201D-01
      0.2010354514D+01  0.3129405934D+00
      0.5477100471D+00  0.7606501651D+00
 P   1 1.00       0.000000000000
      0.1526861380D+00  0.1000000000D+01
 D   1 1.00       0.000000000000
      0.8000000000D+00  0.1000000000D+01
 ****
     17 0
 S   5 1.00       0.000000000000
      0.1238401694D+04  0.5517365048D-02
      0.1862900499D+03  0.4108882856D-01
      0.4225117635D+02  0.1822538213D+00
      0.1167655793D+02  0.4682845944D+00
      0.3593050648D+01  0.4457581734D+00
 S   1 1.00       0.000000000000
      0.4024514736D+00  0.1000000000D+01
 S   1 1.00       0.000000000000
      0.1309018267D+00  0.1000000000D+01
 P   3 1.00       0.000000000000
      0.9468097062D+01  0.5688833201D-01
      0.2010354514D+01  0.3129405934D+00
      0.5477100471D+00  0.7606501651D+00
 P   1 1.00       0.000000000000
      0.1526861380D+00  0.1000000000D+01
 D   1 1.00       0.000000000000
      0.8000000000D+00  0.1000000000D+01
 ****
     18 0
 S   5 1.00       0.000000000000
      0.1238401694D+04  0.5517365048D-02
      0.1862900499D+03  0.4108882856D-01
      0.4225117635D+02  0.1822538213D+00
      0.1167655793D+02  0.4682845944D+00
      0.3593050648D+01  0.4457581734D+00
 S   1 1.00       0.000000000000
      0.4024514736D+00  0.1000000000D+01
 S   1 1.00       0.000000000000
      0.1309018267D+00  0.1000000000D+01
 P   3 1.00       0.000000000000
      0.9468097062D+01  0.5688833201D-01
      0.2010354514D+01  0.3129405934D+00
      0.5477100471D+00  0.7606501651D+00
 P   1 1.00       0.000000000000
      0.1526861380D+00  0.1000000000D+01
 D   1 1.00       0.000000000000
      0.8000000000D+00  0.1000000000D+01
 ****
     19 0
 S   3 1.00       0.000000000000
      0.1301070100D+02  0.3348548481D-01
      0.1962257200D+01  0.2347218709D+00
      0.4445379600D+00  0.8137702853D+00
 S   1 1.00       0.000000000000
      0.1219496200D+00  0.1000000000D+01
 P   1 1.00       0.000000000000
      0.8000000000D+00  0.1000000000D+01
 ****
     20 0
 S   5 1.00       0.000000000000
      0.1238401694D+04  0.5517365048D-02
      0.1862900499D+03  0.4108882856D-01
      0.4225117635D+02  0.1822538213D+00
      0.1167655793D+02  0.4682845944D+00
      0.3593050648D+01  0.4457581734D+00
 S   1 1.00       0.000000000000
      0.4024514736D+00  0.1000000000D+01
 S   1 1.00       0.000000000000
      0.1309018267D+00  0.1000000000D+01
 P   3 1.00       0.000000000000
      0.9468097062D+01  0.5688833201D-01
      0.2010354514D+01  0.3129405934D+00
      0.5477100471D+00  0.7606501651D+00
 P   1 1.00       0.000000000000
      0.1526861380D+00  0.1000000000D+01
 D   1 1.00       0.000000000000
      0.8000000000D+00  0.1000000000D+01
 ****
     21 0
 S   5 1.00       0.000000000000
      0.1238401694D+04  0.5517365048D-02
      0.1862900499D+03  0.4108882856D-01
      0.4225117635D+02  0.1822538213D+00
      0.1167655793D+02  0.4682845944D+00
      0.3593050648D+01  0.4457581734D+00
 S   1 1.00       0.000000000000
      0.4024514736D+00  0.1000000000D+01
 S   1 1.00       0.000000000000
      0.1309018267D+00  0.1000000000D+01
 P   3 1.00       0.000000000000
      0.9468097062D+01  0.5688833201D-01
      0.2010354514D+01  0.3129405934D+00
      0.5477100471D+00  0.7606501651D+00
 P   1 1.00       0.000000000000
      0.1526861380D+00  0.1000000000D+01
 D   1 1.00       0.000000000000
      0.8000000000D+00  0.1000000000D+01
 ****
     22 0
 S   5 1.00       0.000000000000
      0.2894832599D+04 -0.5349321176D-02
      0.4354193912D+03 -0.3996773437D-01
      0.9884332887D+02 -0.1794126179D+00
      0.2748519800D+02 -0.4683246869D+00
      0.8540549817D+01 -0.4472416053D+00
 S   1 1.00       0.000000000000
      0.1065457804D+01  0.1000000000D+01
 S   1 1.00       0.000000000000
      0.3324734675D+00  0.1000000000D+01
 P   3 1.00       0.000000000000
      0.2269663392D+02 -0.6478214824D-01
      0.4987233926D+01 -0.3403578536D+00
      0.1349161395D+01 -0.7348581537D+00
 P   1 1.00       0.000000000000
      0.3482988198D+00  0.1000000000D+01
 D   1 1.00       0.000000000000
      0.1400000000D+01  0.1000000000D+01
 ****
     23 0
 S   5 1.00       0.000000000000
      0.2894832599D+04 -0.5349321176D-02
      0.4354193912D+03 -0.3996773437D-01
      0.9884332887D+02 -0.1794126179D+00
      0.2748519800D+02 -0.4683246869D+00
      0.8540549817D+01 -0.4472416053D+00
 S   1 1.00       0.000000000000
      0.1065457804D+01  0.1000000000D+01
 S   1 1.00       0.000000000000
      0.3324734675D+00  0.1000000000D+01
 P   3 1.00       0.000000000000
      0.2269663392D+02 -0.6478214824D-01
      0.4987233926D+01 -0.3403578536D+00
      0.1349161395D+01 -0.7348581537D+00
 P   1 1.00       0.000000000000
      0.3482988198D+00  0.1000000000D+01
 D   1 1.00       0.000000000000
      0.1400000000D+01  0.1000000000D+01
 ****
     24 0
 S   3 1.00       0.000000000000
      0.1301070100D+02  0.3348548481D-01
      0.1962257200D+01  0.2347218709D+00
      0.4445379600D+00  0.8137702853D+00
 S   1 1.00       0.000000000000
      0.1219496200D+00  0.1000000000D+01
 P   1 1.00       0.000000000000
      0.8000000000D+00  0.1000000000D+01
 ****
     25 0
 S   5 1.00       0.000000000000
      0.1238401694D+04  0.5517365048D-02
      0.1862900499D+03  0.4108882856D-01
      0.4225117635D+02  0.1822538213D+00
      0.1167655793D+02  0.4682845944D+00
      0.3593050648D+01  0.4457581734D+00
 S   1 1.00       0.000000000000
      0.4024514736D+00  0.1000000000D+01
 S   1 1.00       0.000000000000
      0.1309018267D+00  0.1000000000D+01
 P   3 1.00       0.000000000000
      0.9468097062D+01  0.5688833201D-01
      0.2010354514D+01  0.3129405934D+00
      0.5477100471D+00  0.7606501651D+00
 P   1 1.00       0.000000000000
      0.1526861380D+00  0.1000000000D+01
 D   1 1.00       0.000000000000
      0.8000000000D+00  0.1000000000D+01
 ****
     26 0
 S   3 1.00       0.000000000000
      0.1301070100D+02  0.3348548481D-01
      0.1962257200D+01  0.2347218709D+00
      0.4445379600D+00  0.8137702853D+00
 S   1 1.00       0.000000000000
      0.1219496200D+00  0.1000000000D+01
 P   1 1.00       0.000000000000
      0.8000000000D+00  0.1000000000D+01
 ****
     27 0
 S   3 1.00       0.000000000000
      0.1301070100D+02  0.3348548481D-01
      0.1962257200D+01  0.2347218709D+00
      0.4445379600D+00  0.8137702853D+00
 S   1 1.00       0.000000000000
      0.1219496200D+00  0.1000000000D+01
 P   1 1.00       0.000000000000
      0.8000000000D+00  0.1000000000D+01
 ****
     28 0
 S   5 1.00       0.000000000000
      0.1238401694D+04  0.5517365048D-02
      0.1862900499D+03  0.4108882856D-01
      0.4225117635D+02  0.1822538213D+00
      0.1167655793D+02  0.4682845944D+00
      0.3593050648D+01  0.4457581734D+00
 S   1 1.00       0.000000000000
      0.4024514736D+00  0.1000000000D+01
 S   1 1.00       0.000000000000
      0.1309018267D+00  0.1000000000D+01
 P   3 1.00       0.000000000000
      0.9468097062D+01  0.5688833201D-01
      0.2010354514D+01  0.3129405934D+00
      0.5477100471D+00  0.7606501651D+00
 P   1 1.00       0.000000000000
      0.1526861380D+00  0.1000000000D+01
 D   1 1.00       0.000000000000
      0.8000000000D+00  0.1000000000D+01
 ****
     29 0
 S   3 1.00       0.000000000000
      0.1301070100D+02  0.3348548481D-01
      0.1962257200D+01  0.2347218709D+00
      0.4445379600D+00  0.8137702853D+00
 S   1 1.00       0.000000000000
      0.1219496200D+00  0.1000000000D+01
 P   1 1.00       0.000000000000
      0.8000000000D+00  0.1000000000D+01
 ****
     30 0
 S   3 1.00       0.000000000000
      0.1301070100D+02  0.3348548481D-01
      0.1962257200D+01  0.2347218709D+00
      0.4445379600D+00  0.8137702853D+00
 S   1 1.00       0.000000000000
      0.1219496200D+00  0.1000000000D+01
 P   1 1.00       0.000000000000
      0.8000000000D+00  0.1000000000D+01
 ****
     31 0
 S   5 1.00       0.000000000000
      0.1238401694D+04  0.5517365048D-02
      0.1862900499D+03  0.4108882856D-01
      0.4225117635D+02  0.1822538213D+00
      0.1167655793D+02  0.4682845944D+00
      0.3593050648D+01  0.4457581734D+00
 S   1 1.00       0.000000000000
      0.4024514736D+00  0.1000000000D+01
 S   1 1.00       0.000000000000
      0.1309018267D+00  0.1000000000D+01
 P   3 1.00       0.000000000000
      0.9468097062D+01  0.5688833201D-01
      0.2010354514D+01  0.3129405934D+00
      0.5477100471D+00  0.7606501651D+00
 P   1 1.00       0.000000000000
      0.1526861380D+00  0.1000000000D+01
 D   1 1.00       0.000000000000
      0.8000000000D+00  0.1000000000D+01
 ****
     32 0
 S   5 1.00       0.000000000000
      0.1238401694D+04  0.5517365048D-02
      0.1862900499D+03  0.4108882856D-01
      0.4225117635D+02  0.1822538213D+00
      0.1167655793D+02  0.4682845944D+00
      0.3593050648D+01  0.4457581734D+00
 S   1 1.00       0.000000000000
      0.4024514736D+00  0.1000000000D+01
 S   1 1.00       0.000000000000
      0.1309018267D+00  0.1000000000D+01
 P   3 1.00       0.000000000000
      0.9468097062D+01  0.5688833201D-01
      0.2010354514D+01  0.3129405934D+00
      0.5477100471D+00  0.7606501651D+00
 P   1 1.00       0.000000000000
      0.1526861380D+00  0.1000000000D+01
 D   1 1.00       0.000000000000
      0.8000000000D+00  0.1000000000D+01
 ****
     33 0
 S   5 1.00       0.000000000000
      0.1238401694D+04  0.5517365048D-02
      0.1862900499D+03  0.4108882856D-01
      0.4225117635D+02  0.1822538213D+00
      0.1167655793D+02  0.4682845944D+00
      0.3593050648D+01  0.4457581734D+00
 S   1 1.00       0.000000000000
      0.4024514736D+00  0.1000000000D+01
 S   1 1.00       0.000000000000
      0.1309018267D+00  0.1000000000D+01
 P   3 1.00       0.000000000000
      0.9468097062D+01  0.5688833201D-01
      0.2010354514D+01  0.3129405934D+00
      0.5477100471D+00  0.7606501651D+00
 P   1 1.00       0.000000000000
      0.1526861380D+00  0.1000000000D+01
 D   1 1.00       0.000000000000
      0.8000000000D+00  0.1000000000D+01
 ****
     34 0
 S   5 1.00       0.000000000000
      0.1238401694D+04  0.5517365048D-02
      0.1862900499D+03  0.4108882856D-01
      0.4225117635D+02  0.1822538213D+00
      0.1167655793D+02  0.4682845944D+00
      0.3593050648D+01  0.4457581734D+00
 S   1 1.00       0.000000000000
      0.4024514736D+00  0.1000000000D+01
 S   1 1.00       0.000000000000
      0.1309018267D+00  0.1000000000D+01
 P   3 1.00       0.000000000000
      0.9468097062D+01  0.5688833201D-01
      0.2010354514D+01  0.3129405934D+00
      0.5477100471D+00  0.7606501651D+00
 P   1 1.00       0.000000000000
      0.1526861380D+00  0.1000000000D+01
 D   1 1.00       0.000000000000
      0.8000000000D+00  0.1000000000D+01
 ****
     35 0
 S   5 1.00       0.000000000000
      0.1238401694D+04  0.5517365048D-02
      0.1862900499D+03  0.4108882856D-01
      0.4225117635D+02  0.1822538213D+00
      0.1167655793D+02  0.4682845944D+00
      0.3593050648D+01  0.4457581734D+00
 S   1 1.00       0.000000000000
      0.4024514736D+00  0.1000000000D+01
 S   1 1.00       0.000000000000
      0.1309018267D+00  0.1000000000D+01
 P   3 1.00       0.000000000000
      0.9468097062D+01  0.5688833201D-01
      0.2010354514D+01  0.3129405934D+00
      0.5477100471D+00  0.7606501651D+00
 P   1 1.00       0.000000000000
      0.1526861380D+00  0.1000000000D+01
 D   1 1.00       0.000000000000
      0.8000000000D+00  0.1000000000D+01
 ****
     36 0
 S   5 1.00       0.000000000000
      0.1238401694D+04  0.5517365048D-02
      0.1862900499D+03  0.4108882856D-01
      0.4225117635D+02  0.1822538213D+00
      0.1167655793D+02  0.4682845944D+00
      0.3593050648D+01  0.4457581734D+00
 S   1 1.00       0.000000000000
      0.4024514736D+00  0.1000000000D+01
 S   1 1.00       0.000000000000
      0.1309018267D+00  0.1000000000D+01
 P   3 1.00       0.000000000000
      0.9468097062D+01  0.5688833201D-01
      0.2010354514D+01  0.3129405934D+00
      0.5477100471D+00  0.7606501651D+00
 P   1 1.00       0.000000000000
      0.1526861380D+00  0.1000000000D+01
 D   1 1.00       0.000000000000
      0.8000000000D+00  0.1000000000D+01
 ****
     37 0
 S   5 1.00       0.000000000000
      0.1238401694D+04  0.5517365048D-02
      0.1862900499D+03  0.4108882856D-01
      0.4225117635D+02  0.1822538213D+00
      0.1167655793D+02  0.4682845944D+00
      0.3593050648D+01  0.4457581734D+00
 S   1 1.00       0.000000000000
      0.4024514736D+00  0.1000000000D+01
 S   1 1.00       0.000000000000
      0.1309018267D+00  0.1000000000D+01
 P   3 1.00       0.000000000000
      0.9468097062D+01  0.5688833201D-01
      0.2010354514D+01  0.3129405934D+00
      0.5477100471D+00  0.7606501651D+00
 P   1 1.00       0.000000000000
      0.1526861380D+00  0.1000000000D+01
 D   1 1.00       0.000000000000
      0.8000000000D+00  0.1000000000D+01
 ****
     38 0
 S   5 1.00       0.000000000000
      0.1712841585D+04 -0.5447799580D-02
      0.2576481268D+03 -0.4062717463D-01
      0.5845824585D+02 -0.1811196225D+00
      0.1619836791D+02 -0.4684397556D+00
      0.5005260081D+01 -0.4461684629D+00
 S   1 1.00       0.000000000000
      0.5873185657D+00  0.1000000000D+01
 S   1 1.00       0.000000000000
      0.1876459225D+00  0.1000000000D+01
 P   3 1.00       0.000000000000
      0.1357147023D+02 -0.5884811697D-01
      0.2925737287D+01 -0.3202462476D+00
      0.7992775075D+00 -0.7532822652D+00
 P   1 1.00       0.000000000000
      0.2195434803D+00  0.1000000000D+01
 D   1 1.00       0.000000000000
      0.1000000000D+01  0.1000000000D+01
 ****
     39 0
 S   3 1.00       0.000000000000
      0.1301070100D+02  0.3348548481D-01
      0.1962257200D+01  0.2347218709D+00
      0.4445379600D+00  0.8137702853D+00
 S   1 1.00       0.000000000000
      0.1219496200D+00  0.1000000000D+01
 P   1 1.00       0.000000000000
      0.8000000000D+00  0.1000000000D+01
 ****
     40 0
 S   5 1.00       0.000000000000
      0.2894832599D+04 -0.5349321176D-02
      0.4354193912D+03 -0.3996773437D-01
      0.9884332887D+02 -0.1794126179D+00
      0.2748519800D+02 -0.4683246869D+00
      0.8540549817D+01 -0.4472416053D+00
 S   1 1.00       0.000000000000
      0.1065457804D+01  0.1000000000D+01
 S   1 1.00       0.000000000000
      0.3324734675D+00  0.1000000000D+01
 P   3 1.00       0.000000000000
      0.2269663392D+02 -0.6478214824D-01
      0.4987233926D+01 -0.3403578536D+00
      0.1349161395D+01 -0.7348581537D+00
 P   1 1.00       0.000000000000
      0.3482988198D+00  0.1000000000D+01
 D   1 1.00       0.000000000000
      0.1400000000D+01  0.1000000000D+01
 ****
     41 0
 S   5 1.00       0.000000000000
      0.2894832599D+04 -0.5349321176D-02
      0.4354193912D+03 -0.3996773437D-01
      0.9884332887D+02 -0.1794126179D+00
      0.2748519800D+02 -0.4683246869D+00
      0.8540549817D+01 -0.4472416053D+00
 S   1 1.00       0.000000000000
      0.1065457804D+01  0.1000000000D+01
 S   1 1.00       0.000000000000
      0.3324734675D+00  0.1000000000D+01
 P   3 1.00       0.000000000000
      0.2269663392D+02 -0.6478214824D-01
      0.4987233926D+01 -0.3403578536D+00
      0.1349161395D+01 -0.7348581537D+00
 P   1 1.00       0.000000000000
      0.3482988198D+00  0.1000000000D+01
 D   1 1.00       0.000000000000
      0.1400000000D+01  0.1000000000D+01
 ****
     42 0
 S   5 1.00       0.000000000000
      0.2894832599D+04 -0.5349321176D-02
      0.4354193912D+03 -0.3996773437D-01
      0.9884332887D+02 -0.1794126179D+00
      0.2748519800D+02 -0.4683246869D+00
      0.8540549817D+01 -0.4472416053D+00
 S   1 1.00       0.000000000000
      0.1065457804D+01  0.1000000000D+01
 S   1 1.00       0.000000000000
      0.3324734675D+00  0.1000000000D+01
 P   3 1.00       0.000000000000
      0.2269663392D+02 -0.6478214824D-01
      0.4987233926D+01 -0.3403578536D+00
      0.1349161395D+01 -0.7348581537D+00
 P   1 1.00       0.000000000000
      0.3482988198D+00  0.1000000000D+01
 D   1 1.00       0.000000000000
      0.1400000000D+01  0.1000000000D+01
 ****
     43 0
 S   5 1.00       0.000000000000
      0.2894832599D+04 -0.5349321176D-02
      0.4354193912D+03 -0.3996773437D-01
      0.9884332887D+02 -0.1794126179D+00
      0.2748519800D+02 -0.4683246869D+00
      0.8540549817D+01 -0.4472416053D+00
 S   1 1.00       0.000000000000
      0.1065457804D+01  0.1000000000D+01
 S   1 1.00       0.000000000000
      0.3324734675D+00  0.1000000000D+01
 P   3 1.00       0.000000000000
      0.2269663392D+02 -0.6478214824D-01
      0.4987233926D+01 -0.3403578536D+00
      0.1349161395D+01 -0.7348581537D+00
 P   1 1.00       0.000000000000
      0.3482988198D+00  0.1000000000D+01
 D   1 1.00       0.000000000000
      0.1400000000D+01  0.1000000000D+01
 ****
     44 0
 S   5 1.00       0.000000000000
      0.2894832599D+04 -0.5349321176D-02
      0.4354193912D+03 -0.3996773437D-01
      0.9884332887D+02 -0.1794126179D+00
      0.2748519800D+02 -0.4683246869D+00
      0.8540549817D+01 -0.4472416053D+00
 S   1 1.00       0.000000000000
      0.1065457804D+01  0.1000000000D+01
 S   1 1.00       0.000000000000
      0.3324734675D+00  0.1000000000D+01
 P   3 1.00       0.000000000000
      0.2269663392D+02 -0.6478214824D-01
      0.4987233926D+01 -0.3403578536D+00
      0.1349161395D+01 -0.7348581537D+00
 P   1 1.00       0.000000000000
      0.3482988198D+00  0.1000000000D+01
 D   1 1.00       0.000000000000
      0.1400000000D+01  0.1000000000D+01
 ****
     45 0
 S   5 1.00       0.000000000000
      0.2894832599D+04 -0.5349321176D-02
      0.4354193912D+03 -0.3996773437D-01
      0.9884332887D+02 -0.1794126179D+00
      0.2748519800D+02 -0.4683246869D+00
      0.8540549817D+01 -0.4472416053D+00
 S   1 1.00       0.000000000000
      0.1065457804D+01  0.1000000000D+01
 S   1 1.00       0.000000000000
      0.3324734675D+00  0.1000000000D+01
 P   3 1.00       0.000000000000
      0.2269663392D+02 -0.6478214824D-01
      0.4987233926D+01 -0.3403578536D+00
      0.1349161395D+01 -0.7348581537D+00
 P   1 1.00       0.000000000000
      0.3482988198D+00  0.1000000000D+01
 D   1 1.00       0.000000000000
      0.1400000000D+01  0.1000000000D+01
 ****
     46 0
 S   3 1.00       0.000000000000
      0.1301070100D+02  0.3348548481D-01
      0.1962257200D+01  0.2347218709D+00
      0.4445379600D+00  0.8137702853D+00
 S   1 1.00       0.000000000000
      0.1219496200D+00  0.1000000000D+01
 P   1 1.00       0.000000000000
      0.8000000000D+00  0.1000000000D+01
 ****
     47 0
 S   3 1.00       0.000000000000
      0.1301070100D+02  0.3348548481D-01
      0.1962257200D+01  0.2347218709D+00
      0.4445379600D+00  0.8137702853D+00
 S   1 1.00       0.000000000000
      0.1219496200D+00  0.1000000000D+01
 P   1 1.00       0.000000000000
      0.8000000000D+00  0.1000000000D+01
 ****
     48 0
 S   3 1.00       0.000000000000
      0.1301070100D+02  0.3348548481D-01
      0.1962257200D+01  0.2347218709D+00
      0.4445379600D+00  0.8137702853D+00
 S   1 1.00       0.000000000000
      0.1219496200D+00  0.1000000000D+01
 P   1 1.00       0.000000000000
      0.8000000000D+00  0.1000000000D+01
 ****
     49 0
 S   3 1.00       0.000000000000
      0.1301070100D+02  0.3348548481D-01
      0.1962257200D+01  0.2347218709D+00
      0.4445379600D+00  0.8137702853D+00
 S   1 1.00       0.000000000000
      0.1219496200D+00  0.1000000000D+01
 P   1 1.00       0.000000000000
      0.8000000000D+00  0.1000000000D+01
 ****
     50 0
 S   5 1.00       0.000000000000
      0.1238401694D+04  0.5517365048D-02
      0.1862900499D+03  0.4108882856D-01
      0.4225117635D+02  0.1822538213D+00
      0.1167655793D+02  0.4682845944D+00
      0.3593050648D+01  0.4457581734D+00
 S   1 1.00       0.000000000000
      0.4024514736D+00  0.1000000000D+01
 S   1 1.00       0.000000000000
      0.1309018267D+00  0.1000000000D+01
 P   3 1.00       0.000000000000
      0.9468097062D+01  0.5688833201D-01
      0.2010354514D+01  0.3129405934D+00
      0.5477100471D+00  0.7606501651D+00
 P   1 1.00       0.000000000000
      0.1526861380D+00  0.1000000000D+01
 D   1 1.00       0.000000000000
      0.8000000000D+00  0.1000000000D+01
 ****
     51 0
 S   5 1.00       0.000000000000
      0.1238401694D+04  0.5517365048D-02
      0.1862900499D+03  0.4108882856D-01
      0.4225117635D+02  0.1822538213D+00
      0.1167655793D+02  0.4682845944D+00
      0.3593050648D+01  0.4457581734D+00
 S   1 1.00       0.000000000000
      0.4024514736D+00  0.1000000000D+01
 S   1 1.00       0.000000000000
      0.1309018267D+00  0.1000000000D+01
 P   3 1.00       0.000000000000
      0.9468097062D+01  0.5688833201D-01
      0.2010354514D+01  0.3129405934D+00
      0.5477100471D+00  0.7606501651D+00
 P   1 1.00       0.000000000000
      0.1526861380D+00  0.1000000000D+01
 D   1 1.00       0.000000000000
      0.8000000000D+00  0.1000000000D+01
 ****
     52 0
 S   3 1.00       0.000000000000
      0.1301070100D+02  0.3348548481D-01
      0.1962257200D+01  0.2347218709D+00
      0.4445379600D+00  0.8137702853D+00
 S   1 1.00       0.000000000000
      0.1219496200D+00  0.1000000000D+01
 P   1 1.00       0.000000000000
      0.8000000000D+00  0.1000000000D+01
 ****
     53 0
 S   3 1.00       0.000000000000
      0.1301070100D+02  0.3348548481D-01
      0.1962257200D+01  0.2347218709D+00
      0.4445379600D+00  0.8137702853D+00
 S   1 1.00       0.000000000000
      0.1219496200D+00  0.1000000000D+01
 P   1 1.00       0.000000000000
      0.8000000000D+00  0.1000000000D+01
 ****
     54 0
 S   3 1.00       0.000000000000
      0.1301070100D+02  0.3348548481D-01
      0.1962257200D+01  0.2347218709D+00
      0.4445379600D+00  0.8137702853D+00
 S   1 1.00       0.000000000000
      0.1219496200D+00  0.1000000000D+01
 P   1 1.00       0.000000000000
      0.8000000000D+00  0.1000000000D+01
 ****
     55 0
 S   3 1.00       0.000000000000
      0.1301070100D+02  0.3348548481D-01
      0.1962257200D+01  0.2347218709D+00
      0.4445379600D+00  0.8137702853D+00
 S   1 1.00       0.000000000000
      0.1219496200D+00  0.1000000000D+01
 P   1 1.00       0.000000000000
      0.8000000000D+00  0.1000000000D+01
 ****
     56 0
 S   3 1.00       0.000000000000
      0.1301070100D+02  0.3348548481D-01
      0.1962257200D+01  0.2347218709D+00
      0.4445379600D+00  0.8137702853D+00
 S   1 1.00       0.000000000000
      0.1219496200D+00  0.1000000000D+01
 P   1 1.00       0.000000000000
      0.8000000000D+00  0.1000000000D+01
 ****
     57 0
 S   3 1.00       0.000000000000
      0.1301070100D+02  0.3348548481D-01
      0.1962257200D+01  0.2347218709D+00
      0.4445379600D+00  0.8137702853D+00
 S   1 1.00       0.000000000000
      0.1219496200D+00  0.1000000000D+01
 P   1 1.00       0.000000000000
      0.8000000000D+00  0.1000000000D+01
 ****

 There are   749 symmetry adapted cartesian basis functions of A   symmetry.
 There are   699 symmetry adapted basis functions of A   symmetry.
   699 basis functions,  1272 primitive gaussians,   749 cartesian basis functions
   178 alpha electrons      178 beta electrons
       nuclear repulsion energy      6655.8139884561 Hartrees.
 IExCor=  402 DFT=T Ex+Corr=B3LYP ExCW=0 ScaHFX=  0.200000
 ScaDFX=  0.800000  0.720000  1.000000  0.810000 ScalE2=  1.000000  1.000000
 IRadAn=      5 IRanWt=     -1 IRanGd=            0 ICorTp=0 IEmpDi=  4
 NAtoms=   57 NActive=   57 NUniq=   57 SFac= 1.00D+00 NAtFMM=   60 NAOKFM=F Big=F
 Integral buffers will be    131072 words long.
 Raffenetti 2 integral format.
 Two-electron integral symmetry is turned on.
 Force PCM accuracy= 1.00D-12.
 ------------------------------------------------------------------------------
 Polarizable Continuum Model (PCM)
 =================================
 Model                : PCM.
 Atomic radii         : UFF (Universal Force Field).
 Polarization charges : Total charges.
 Charge compensation  : None.
 Solution method      : On-the-fly selection.
 Cavity type          : Scaled VdW (van der Waals Surface) (Alpha=1.100).
 Cavity algorithm     : GePol (No added spheres)
                        Default sphere list used, NSphG=   57.
                        Lebedev-Laikov grids with approx.  5.0 points / Ang**2.
                        Smoothing algorithm: York/Karplus (Gamma=1.0000).
                        Polarization charges: spherical gaussians, with
                                              point-specific exponents (IZeta= 3).
                        Self-potential: point-specific (ISelfS= 7).
                        Self-field    : sphere-specific E.n sum rule (ISelfD= 2).
 Solvent              : n,n-DiMethylFormamide, Eps=  37.219000 Eps(inf)=   2.046330
 ------------------------------------------------------------------------------
 GePol: Number of generator spheres                  =      57
 GePol: Total number of spheres                      =      57
 GePol: Number of exposed spheres                    =      57 (100.00%)
 GePol: Number of points                             =    4625
 GePol: Average weight of points                     =       0.13
 GePol: Minimum weight of points                     =   0.84D-10
 GePol: Maximum weight of points                     =    0.21838
 GePol: Number of points with low weight             =     240
 GePol: Fraction of low-weight points (<1% of avg)   =       5.19%
 GePol: Cavity surface area                          =    588.921 Ang**2
 GePol: Cavity volume                                =    659.404 Ang**3
 Leave Link  301 at Wed Apr 12 13:46:16 2023, MaxMem=  8053063680 cpu:               0.8 elap:               0.1
 (Enter /scr/programas/g16/l302.exe)
 NPDir=0 NMtPBC=     1 NCelOv=     1 NCel=       1 NClECP=     1 NCelD=      1
         NCelK=      1 NCelE2=     1 NClLst=     1 CellRange=     0.0.
 One-electron integrals computed using PRISM.
 One-electron integral symmetry used in STVInt
 NBasis=   699 RedAO= T EigKep=  1.87D-04  NBF=   699
 NBsUse=   699 1.00D-06 EigRej= -1.00D+00 NBFU=   699
 Precomputing XC quadrature grid using
 IXCGrd= 4 IRadAn=           5 IRanWt=          -1 IRanGd=           0 AccXCQ= 1.00D-12.
 Defaulting to unpruned grid for atomic number  78.
 Generated NRdTot=       0 NPtTot=           0 NUsed=           0 NTot=          32
 NSgBfM=   696   696   696   696   696 MxSgAt=    57 MxSgA2=    57.
 Leave Link  302 at Wed Apr 12 13:46:17 2023, MaxMem=  8053063680 cpu:              15.9 elap:               1.3
 (Enter /scr/programas/g16/l303.exe)
 DipDrv:  MaxL=1.
 Leave Link  303 at Wed Apr 12 13:46:17 2023, MaxMem=  8053063680 cpu:               1.1 elap:               0.1
 (Enter /scr/programas/g16/l401.exe)
 ExpMin= 4.71D-02 ExpMax= 2.79D+06 ExpMxC= 3.32D+04 IAcc=3 IRadAn=         5 AccDes= 0.00D+00
 Harris functional with IExCor=  402 and IRadAn=       5 diagonalized for initial guess.
 HarFok:  IExCor=  402 AccDes= 0.00D+00 IRadAn=         5 IDoV= 1 UseB2=F ITyADJ=14
 ICtDFT=  3500011 ScaDFX=  1.000000  1.000000  1.000000  1.000000
 Defaulting to unpruned grid for atomic number  78.
 FoFCou: FMM=F IPFlag=           0 FMFlag=      100000 FMFlg1=           0
         NFxFlg=           0 DoJE=T BraDBF=F KetDBF=T FulRan=T
         wScrn=  0.000000 ICntrl=       500 IOpCl=  0 I1Cent=   200000004 NGrid=           0
         NMat0=    1 NMatS0=      1 NMatT0=    0 NMatD0=    1 NMtDS0=    0 NMtDT0=    0
 Petite list used in FoFCou.
 Harris En= -19353.9827643092    
 JPrj=0 DoOrth=F DoCkMO=F.
 Leave Link  401 at Wed Apr 12 13:46:23 2023, MaxMem=  8053063680 cpu:              64.5 elap:               5.4
 (Enter /scr/programas/g16/l502.exe)
 Integral symmetry usage will be decided dynamically.
 Closed shell SCF:
 Using DIIS extrapolation, IDIIS=  1040.
 NGot=  8053063680 LenX=  8051923946 LenY=  8051362196
 Requested convergence on RMS density matrix=1.00D-08 within 200 cycles.
 Requested convergence on MAX density matrix=1.00D-06.
 Requested convergence on             energy=1.00D-06.
 No special actions if energy rises.
 Fock matrices will be formed incrementally for  20 cycles.

 Cycle   1  Pass 1  IDiag  1:
 FoFJK:  IHMeth= 1 ICntrl=       0 DoSepK=F KAlg= 0 I1Cent=           0 FoldK=F
 IRaf= 640000000 NMat=       1 IRICut=       1 DoRegI=T DoRafI=F ISym2E= 0 IDoP0=0 IntGTp=1.
 FoFCou: FMM=F IPFlag=           0 FMFlag=      100000 FMFlg1=           0
         NFxFlg=           0 DoJE=F BraDBF=F KetDBF=F FulRan=T
         wScrn=  0.000000 ICntrl=         0 IOpCl=  0 I1Cent=           0 NGrid=           0
         NMat0=    1 NMatS0=      1 NMatT0=    0 NMatD0=    1 NMtDS0=    0 NMtDT0=    0
 Symmetry not used in FoFCou.
 Defaulting to unpruned grid for atomic number  78.
 Defaulting to unpruned grid for atomic number  78.
 Defaulting to unpruned grid for atomic number  78.
 Defaulting to unpruned grid for atomic number  78.
 Defaulting to unpruned grid for atomic number  78.
 Defaulting to unpruned grid for atomic number  78.
 Defaulting to unpruned grid for atomic number  78.
 Defaulting to unpruned grid for atomic number  78.
 Defaulting to unpruned grid for atomic number  78.
 Defaulting to unpruned grid for atomic number  78.
 Defaulting to unpruned grid for atomic number  78.
 Defaulting to unpruned grid for atomic number  78.
 Inv3:  Mode=1 IEnd=    64171875.
 Iteration    1 A*A^-1 deviation from unit magnitude is 1.28D-14 for   3106.
 Iteration    1 A*A^-1 deviation from orthogonality  is 6.66D-15 for   2577    597.
 Iteration    1 A^-1*A deviation from unit magnitude is 1.28D-14 for   3106.
 Iteration    1 A^-1*A deviation from orthogonality  is 7.40D-15 for   2684   1206.
 E= -19328.4802908558    
 DIIS: error= 8.42D-01 at cycle   1 NSaved=   1.
 NSaved= 1 IEnMin= 1 EnMin= -19328.4802908558     IErMin= 1 ErrMin= 8.42D-01
 ErrMax= 8.42D-01  0.00D+00 EMaxC= 1.00D-01 BMatC= 6.60D+01 BMatP= 6.60D+01
 IDIUse=3 WtCom= 0.00D+00 WtEn= 1.00D+00
 Coeff-Com:  0.100D+01
 Coeff-En:   0.100D+01
 Coeff:      0.100D+01
 Gap=     0.142 Goal=   None    Shift=    0.000
 GapD=    0.142 DampG=1.000 DampE=0.125 DampFc=0.1250 IDamp=-1.
 Damping current iteration by 1.25D-01
 RMSDP=6.24D-02 MaxDP=8.71D+00              OVMax= 9.48D-01

 Cycle   2  Pass 1  IDiag  1:
 RMSU=  7.80D-03    CP:  1.01D+00
 E= -19330.9536707524     Delta-E=       -2.473379896655 Rises=F Damp=T
 DIIS: error= 7.30D-01 at cycle   2 NSaved=   2.
 NSaved= 2 IEnMin= 2 EnMin= -19330.9536707524     IErMin= 2 ErrMin= 7.30D-01
 ErrMax= 7.30D-01  0.00D+00 EMaxC= 1.00D-01 BMatC= 4.46D+01 BMatP= 6.60D+01
 IDIUse=3 WtCom= 0.00D+00 WtEn= 1.00D+00
 Coeff-Com: -0.266D+01 0.366D+01
 Coeff-En:   0.609D-01 0.939D+00
 Coeff:      0.609D-01 0.939D+00
 Gap=     0.046 Goal=   None    Shift=    0.000
 RMSDP=1.33D-02 MaxDP=2.03D+00 DE=-2.47D+00 OVMax= 1.00D+00

 Cycle   3  Pass 1  IDiag  1:
 RMSU=  1.15D-02    CP:  1.02D+00  1.84D+00
 E= -19330.1274773547     Delta-E=        0.826193397705 Rises=F Damp=F
 DIIS: error= 1.26D-01 at cycle   3 NSaved=   3.
 NSaved= 3 IEnMin= 2 EnMin= -19330.9536707524     IErMin= 3 ErrMin= 1.26D-01
 ErrMax= 1.26D-01  0.00D+00 EMaxC= 1.00D-01 BMatC= 1.17D+01 BMatP= 4.46D+01
 IDIUse=3 WtCom= 0.00D+00 WtEn= 1.00D+00
 EnCoef did   100 forward-backward iterations
 Coeff-Com:  0.929D-01 0.144D+00 0.763D+00
 Coeff-En:   0.469D+00 0.684D-02 0.524D+00
 Coeff:      0.469D+00 0.684D-02 0.524D+00
 Gap=    -0.057 Goal=   None    Shift=    0.000
 RMSDP=1.37D-02 MaxDP=2.52D+00 DE= 8.26D-01 OVMax= 8.16D-01

 Cycle   4  Pass 1  IDiag  1:
 RMSU=  3.91D-03    CP:  9.84D-01  3.84D-01  4.32D-01
 E= -19339.8047525702     Delta-E=       -9.677275215421 Rises=F Damp=F
 DIIS: error= 2.07D-02 at cycle   4 NSaved=   4.
 NSaved= 4 IEnMin= 4 EnMin= -19339.8047525702     IErMin= 4 ErrMin= 2.07D-02
 ErrMax= 2.07D-02  0.00D+00 EMaxC= 1.00D-01 BMatC= 2.61D-01 BMatP= 1.17D+01
 IDIUse=3 WtCom= 7.93D-01 WtEn= 2.07D-01
 Coeff-Com:  0.117D+00-0.118D+00-0.832D-02 0.101D+01
 Coeff-En:   0.000D+00 0.000D+00 0.000D+00 0.100D+01
 Coeff:      0.931D-01-0.935D-01-0.660D-02 0.101D+01
 Gap=     0.179 Goal=   None    Shift=    0.000
 RMSDP=2.31D-03 MaxDP=2.81D-01 DE=-9.68D+00 OVMax= 3.82D-01

 Cycle   5  Pass 1  IDiag  1:
 RMSU=  2.13D-03    CP:  9.82D-01  3.24D-01  3.79D-01  8.82D-01
 E= -19339.5628222807     Delta-E=        0.241930289427 Rises=F Damp=F
 DIIS: error= 2.37D-02 at cycle   5 NSaved=   5.
 NSaved= 5 IEnMin= 4 EnMin= -19339.8047525702     IErMin= 4 ErrMin= 2.07D-02
 ErrMax= 2.37D-02  0.00D+00 EMaxC= 1.00D-01 BMatC= 4.75D-01 BMatP= 2.61D-01
 IDIUse=2 WtCom= 0.00D+00 WtEn= 1.00D+00
 Coeff-En:   0.000D+00 0.000D+00 0.000D+00 0.636D+00 0.364D+00
 Coeff:      0.000D+00 0.000D+00 0.000D+00 0.636D+00 0.364D+00
 Gap=     0.096 Goal=   None    Shift=    0.000
 RMSDP=1.38D-03 MaxDP=1.43D-01 DE= 2.42D-01 OVMax= 2.77D-01

 Cycle   6  Pass 1  IDiag  1:
 RMSU=  1.00D-03    CP:  9.81D-01  3.35D-01  3.79D-01  9.77D-01  5.92D-01
 E= -19339.9709463545     Delta-E=       -0.408124073729 Rises=F Damp=F
 DIIS: error= 1.73D-02 at cycle   6 NSaved=   6.
 NSaved= 6 IEnMin= 6 EnMin= -19339.9709463545     IErMin= 6 ErrMin= 1.73D-02
 ErrMax= 1.73D-02  0.00D+00 EMaxC= 1.00D-01 BMatC= 1.18D-01 BMatP= 2.61D-01
 IDIUse=3 WtCom= 8.27D-01 WtEn= 1.73D-01
 Coeff-Com: -0.229D-01 0.301D-01-0.391D-05 0.415D+00 0.248D+00 0.330D+00
 Coeff-En:   0.000D+00 0.000D+00 0.000D+00 0.263D+00 0.000D+00 0.737D+00
 Coeff:     -0.189D-01 0.249D-01-0.323D-05 0.388D+00 0.205D+00 0.401D+00
 Gap=     0.104 Goal=   None    Shift=    0.000
 RMSDP=9.94D-04 MaxDP=3.05D-01 DE=-4.08D-01 OVMax= 1.13D-01

 Cycle   7  Pass 1  IDiag  1:
 RMSU=  3.35D-04    CP:  9.82D-01  3.53D-01  4.07D-01  9.66D-01  4.53D-01
                    CP:  1.91D-01
 E= -19340.0676364415     Delta-E=       -0.096690087084 Rises=F Damp=F
 DIIS: error= 3.80D-03 at cycle   7 NSaved=   7.
 NSaved= 7 IEnMin= 7 EnMin= -19340.0676364415     IErMin= 7 ErrMin= 3.80D-03
 ErrMax= 3.80D-03  0.00D+00 EMaxC= 1.00D-01 BMatC= 8.26D-03 BMatP= 1.18D-01
 IDIUse=3 WtCom= 9.62D-01 WtEn= 3.80D-02
 Coeff-Com: -0.647D-02 0.844D-02-0.310D-02 0.110D+00 0.354D-01 0.215D+00
 Coeff-Com:  0.640D+00
 Coeff-En:   0.000D+00 0.000D+00 0.000D+00 0.000D+00 0.000D+00 0.557D-01
 Coeff-En:   0.944D+00
 Coeff:     -0.622D-02 0.811D-02-0.299D-02 0.106D+00 0.341D-01 0.209D+00
 Coeff:      0.652D+00
 Gap=     0.085 Goal=   None    Shift=    0.000
 RMSDP=2.12D-04 MaxDP=4.07D-02 DE=-9.67D-02 OVMax= 2.15D-02

 Cycle   8  Pass 1  IDiag  1:
 RMSU=  1.18D-04    CP:  9.82D-01  3.46D-01  4.00D-01  9.76D-01  4.48D-01
                    CP:  3.16D-01  8.02D-01
 E= -19340.0736876151     Delta-E=       -0.006051173543 Rises=F Damp=F
 DIIS: error= 1.06D-03 at cycle   8 NSaved=   8.
 NSaved= 8 IEnMin= 8 EnMin= -19340.0736876151     IErMin= 8 ErrMin= 1.06D-03
 ErrMax= 1.06D-03  0.00D+00 EMaxC= 1.00D-01 BMatC= 9.67D-04 BMatP= 8.26D-03
 IDIUse=3 WtCom= 9.89D-01 WtEn= 1.06D-02
 Coeff-Com: -0.144D-02 0.175D-02-0.153D-02 0.140D-01-0.106D-01 0.897D-01
 Coeff-Com:  0.397D+00 0.511D+00
 Coeff-En:   0.000D+00 0.000D+00 0.000D+00 0.000D+00 0.000D+00 0.000D+00
 Coeff-En:   0.646D-01 0.935D+00
 Coeff:     -0.143D-02 0.173D-02-0.151D-02 0.138D-01-0.105D-01 0.888D-01
 Coeff:      0.394D+00 0.515D+00
 Gap=     0.088 Goal=   None    Shift=    0.000
 RMSDP=7.25D-05 MaxDP=5.90D-03 DE=-6.05D-03 OVMax= 9.92D-03

 Cycle   9  Pass 1  IDiag  1:
 RMSU=  4.67D-05    CP:  9.82D-01  3.46D-01  4.00D-01  9.74D-01  4.48D-01
                    CP:  3.03D-01  8.67D-01  5.88D-01
 E= -19340.0744260333     Delta-E=       -0.000738418203 Rises=F Damp=F
 DIIS: error= 5.20D-04 at cycle   9 NSaved=   9.
 NSaved= 9 IEnMin= 9 EnMin= -19340.0744260333     IErMin= 9 ErrMin= 5.20D-04
 ErrMax= 5.20D-04  0.00D+00 EMaxC= 1.00D-01 BMatC= 1.95D-04 BMatP= 9.67D-04
 IDIUse=3 WtCom= 9.95D-01 WtEn= 5.20D-03
 Coeff-Com: -0.393D-03 0.377D-03-0.346D-03-0.214D-02-0.975D-02 0.397D-01
 Coeff-Com:  0.165D+00 0.340D+00 0.468D+00
 Coeff-En:   0.000D+00 0.000D+00 0.000D+00 0.000D+00 0.000D+00 0.000D+00
 Coeff-En:   0.000D+00 0.178D+00 0.822D+00
 Coeff:     -0.391D-03 0.375D-03-0.345D-03-0.213D-02-0.969D-02 0.395D-01
 Coeff:      0.164D+00 0.339D+00 0.470D+00
 Gap=     0.088 Goal=   None    Shift=    0.000
 RMSDP=2.56D-05 MaxDP=2.26D-03 DE=-7.38D-04 OVMax= 4.61D-03

 Cycle  10  Pass 1  IDiag  1:
 RMSU=  1.70D-05    CP:  9.82D-01  3.46D-01  4.00D-01  9.75D-01  4.49D-01
                    CP:  3.10D-01  8.71D-01  6.69D-01  6.84D-01
 E= -19340.0746147308     Delta-E=       -0.000188697501 Rises=F Damp=F
 DIIS: error= 1.35D-04 at cycle  10 NSaved=  10.
 NSaved=10 IEnMin=10 EnMin= -19340.0746147308     IErMin=10 ErrMin= 1.35D-04
 ErrMax= 1.35D-04  0.00D+00 EMaxC= 1.00D-01 BMatC= 1.14D-05 BMatP= 1.95D-04
 IDIUse=3 WtCom= 9.99D-01 WtEn= 1.35D-03
 Coeff-Com: -0.155D-03 0.130D-03 0.125D-05-0.319D-02-0.259D-02 0.657D-02
 Coeff-Com:  0.102D-01 0.913D-01 0.234D+00 0.664D+00
 Coeff-En:   0.000D+00 0.000D+00 0.000D+00 0.000D+00 0.000D+00 0.000D+00
 Coeff-En:   0.000D+00 0.000D+00 0.000D+00 0.100D+01
 Coeff:     -0.155D-03 0.130D-03 0.125D-05-0.319D-02-0.258D-02 0.656D-02
 Coeff:      0.102D-01 0.911D-01 0.233D+00 0.665D+00
 Gap=     0.088 Goal=   None    Shift=    0.000
 RMSDP=8.77D-06 MaxDP=1.90D-03 DE=-1.89D-04 OVMax= 9.06D-04

 Cycle  11  Pass 1  IDiag  1:
 RMSU=  4.42D-06    CP:  9.82D-01  3.46D-01  4.00D-01  9.75D-01  4.49D-01
                    CP:  3.16D-01  8.69D-01  6.87D-01  7.37D-01  8.26D-01
 E= -19340.0746249172     Delta-E=       -0.000010186443 Rises=F Damp=F
 DIIS: error= 4.14D-05 at cycle  11 NSaved=  11.
 NSaved=11 IEnMin=11 EnMin= -19340.0746249172     IErMin=11 ErrMin= 4.14D-05
 ErrMax= 4.14D-05  0.00D+00 EMaxC= 1.00D-01 BMatC= 1.15D-06 BMatP= 1.14D-05
 IDIUse=1 WtCom= 1.00D+00 WtEn= 0.00D+00
 Coeff-Com:  0.124D-04-0.328D-04 0.305D-04-0.145D-02-0.415D-03-0.641D-03
 Coeff-Com: -0.940D-02 0.195D-01 0.826D-01 0.356D+00 0.554D+00
 Coeff:      0.124D-04-0.328D-04 0.305D-04-0.145D-02-0.415D-03-0.641D-03
 Coeff:     -0.940D-02 0.195D-01 0.826D-01 0.356D+00 0.554D+00
 Gap=     0.088 Goal=   None    Shift=    0.000
 RMSDP=2.28D-06 MaxDP=1.46D-04 DE=-1.02D-05 OVMax= 3.40D-04

 Cycle  12  Pass 1  IDiag  1:
 RMSU=  1.83D-06    CP:  9.82D-01  3.46D-01  4.00D-01  9.75D-01  4.50D-01
                    CP:  3.16D-01  8.70D-01  6.93D-01  7.50D-01  8.55D-01
                    CP:  8.14D-01
 E= -19340.0746260140     Delta-E=       -0.000001096814 Rises=F Damp=F
 DIIS: error= 1.45D-05 at cycle  12 NSaved=  12.
 NSaved=12 IEnMin=12 EnMin= -19340.0746260140     IErMin=12 ErrMin= 1.45D-05
 ErrMax= 1.45D-05  0.00D+00 EMaxC= 1.00D-01 BMatC= 1.23D-07 BMatP= 1.15D-06
 IDIUse=1 WtCom= 1.00D+00 WtEn= 0.00D+00
 Coeff-Com:  0.817D-05-0.111D-04 0.125D-04-0.426D-03 0.588D-04-0.127D-02
 Coeff-Com: -0.522D-02-0.522D-03 0.125D-01 0.885D-01 0.278D+00 0.629D+00
 Coeff:      0.817D-05-0.111D-04 0.125D-04-0.426D-03 0.588D-04-0.127D-02
 Coeff:     -0.522D-02-0.522D-03 0.125D-01 0.885D-01 0.278D+00 0.629D+00
 Gap=     0.088 Goal=   None    Shift=    0.000
 RMSDP=1.09D-06 MaxDP=6.91D-05 DE=-1.10D-06 OVMax= 2.01D-04

 Cycle  13  Pass 1  IDiag  1:
 RMSU=  6.38D-07    CP:  9.82D-01  3.46D-01  4.00D-01  9.75D-01  4.50D-01
                    CP:  3.15D-01  8.71D-01  6.95D-01  7.55D-01  8.80D-01
                    CP:  8.78D-01  7.64D-01
 E= -19340.0746261558     Delta-E=       -0.000000141765 Rises=F Damp=F
 DIIS: error= 5.13D-06 at cycle  13 NSaved=  13.
 NSaved=13 IEnMin=13 EnMin= -19340.0746261558     IErMin=13 ErrMin= 5.13D-06
 ErrMax= 5.13D-06  0.00D+00 EMaxC= 1.00D-01 BMatC= 1.78D-08 BMatP= 1.23D-07
 IDIUse=1 WtCom= 1.00D+00 WtEn= 0.00D+00
 Coeff-Com:  0.991D-05-0.114D-04 0.625D-05-0.139D-03 0.687D-04-0.687D-03
 Coeff-Com: -0.220D-02-0.201D-02 0.257D-03 0.177D-01 0.105D+00 0.361D+00
 Coeff-Com:  0.521D+00
 Coeff:      0.991D-05-0.114D-04 0.625D-05-0.139D-03 0.687D-04-0.687D-03
 Coeff:     -0.220D-02-0.201D-02 0.257D-03 0.177D-01 0.105D+00 0.361D+00
 Coeff:      0.521D+00
 Gap=     0.088 Goal=   None    Shift=    0.000
 RMSDP=3.32D-07 MaxDP=2.65D-05 DE=-1.42D-07 OVMax= 8.80D-05

 Cycle  14  Pass 1  IDiag  1:
 RMSU=  2.43D-07    CP:  9.82D-01  3.46D-01  4.00D-01  9.75D-01  4.50D-01
                    CP:  3.15D-01  8.71D-01  6.95D-01  7.57D-01  8.83D-01
                    CP:  8.84D-01  8.33D-01  8.06D-01
 E= -19340.0746261751     Delta-E=       -0.000000019310 Rises=F Damp=F
 DIIS: error= 1.68D-06 at cycle  14 NSaved=  14.
 NSaved=14 IEnMin=14 EnMin= -19340.0746261751     IErMin=14 ErrMin= 1.68D-06
 ErrMax= 1.68D-06  0.00D+00 EMaxC= 1.00D-01 BMatC= 2.36D-09 BMatP= 1.78D-08
[...]
 ||, _|_  parallel and perpendicular components, (z) with respect to z axis,
 vector components x,y,z.  Values do not include the 1/n! factor of 1/2.
 (esu units = statvolt**-1 cm**4 , SI units = C**3 m**3 J**-2)
 Beta(0;0,0):
               (au)            (10**-30 esu)      (10**-50 SI)
   || (z)    -0.222728D+03     -0.192419D+01     -0.714146D+00
   _|_(z)    -0.742426D+02     -0.641398D+00     -0.238049D+00
   x          0.174503D+06      0.150757D+04      0.559519D+03
   y         -0.562233D+03     -0.485726D+01     -0.180272D+01
   z         -0.111364D+04     -0.962097D+01     -0.357073D+01
   ||         0.349014D+05      0.301521D+03      0.111907D+03
   xxx        0.562801D+05      0.486216D+03      0.180454D+03
   xxy       -0.175719D+03     -0.151808D+01     -0.563419D+00
   yxy        0.211556D+04      0.182768D+02      0.678326D+01
   yyy       -0.118055D+02     -0.101991D+00     -0.378528D-01
   xxz       -0.285425D+03     -0.246585D+01     -0.915175D+00
   yxz       -0.157858D+02     -0.136377D+00     -0.506151D-01
   yyz       -0.706189D+02     -0.610093D+00     -0.226430D+00
   zxz       -0.228063D+03     -0.197028D+01     -0.731251D+00
   zyz        0.113751D+00      0.982720D-03      0.364727D-03
   zzz       -0.151694D+02     -0.131051D+00     -0.486384D-01
 Beta(-w;w,0) w= 1907.0nm:
                  (au)         (10**-30 esu)      (10**-50 SI)
   || (z)    -0.199060D+03     -0.171972D+01     -0.638257D+00
   _|_(z)    -0.538220D+02     -0.464980D+00     -0.172573D+00
   x          0.154626D+06      0.133585D+04      0.495788D+03
   y         -0.501782D+03     -0.433500D+01     -0.160889D+01
   z         -0.995298D+03     -0.859860D+01     -0.319128D+01
   ||         0.309261D+05      0.267177D+03      0.991602D+02
   xxx        0.494750D+05      0.427425D+03      0.158635D+03
   yxx       -0.151408D+03     -0.130805D+01     -0.485468D+00
   yyx        0.198264D+04      0.171285D+02      0.635707D+01
   zxx       -0.284127D+03     -0.245463D+01     -0.911012D+00
   zyx       -0.100005D+02     -0.863963D-01     -0.320651D-01
   zzx       -0.911539D+02     -0.787499D+00     -0.292272D+00
   xxy       -0.151341D+03     -0.130747D+01     -0.485253D+00
   yxy        0.230310D+04      0.198970D+02      0.738457D+01
   yyy       -0.156562D+02     -0.135258D+00     -0.501996D-01
   zxy       -0.920823D+01     -0.795519D-01     -0.295249D-01
   zyy       -0.579370D+02     -0.500530D+00     -0.185767D+00
   zzy       -0.390489D+00     -0.337352D-02     -0.125205D-02
   xxz       -0.254913D+03     -0.220225D+01     -0.817345D+00
   yxz       -0.855441D+01     -0.739034D-01     -0.274285D-01
   yyz       -0.495564D+02     -0.428129D+00     -0.158896D+00
   zxz       -0.148121D+03     -0.127965D+01     -0.474928D+00
   zyz       -0.133051D+00     -0.114946D-02     -0.426611D-03
   zzz       -0.223362D+01     -0.192967D-01     -0.716178D-02
 Beta(-2w;w,w) w= 1907.0nm:
                  (au)         (10**-30 esu)      (10**-50 SI)
   || (z)    -0.268496D+03     -0.231959D+01     -0.860895D+00
   _|_(z)    -0.977095D+02     -0.844134D+00     -0.313292D+00
   x          0.215345D+06      0.186041D+04      0.690474D+03
   y         -0.718400D+03     -0.620641D+01     -0.230345D+01
   z         -0.134248D+04     -0.115980D+02     -0.430447D+01
   ||         0.430701D+05      0.372092D+03      0.138098D+03
   xxx        0.681529D+05      0.588788D+03      0.218523D+03
   yxx       -0.207650D+03     -0.179393D+01     -0.665800D+00
   zxx       -0.403258D+03     -0.348383D+01     -0.129299D+01
   xyx       -0.205379D+03     -0.177432D+01     -0.658520D+00
   yyx        0.354322D+04      0.306107D+02      0.113608D+02
   zyx       -0.167454D+01     -0.144667D-01     -0.536917D-02
   xyy        0.415644D+04      0.359084D+02      0.133270D+02
   yyy       -0.330475D+02     -0.285505D+00     -0.105962D+00
   zyy       -0.614831D+02     -0.531166D+00     -0.197137D+00
   xzx       -0.384919D+03     -0.332540D+01     -0.123419D+01
   yzx       -0.217189D+01     -0.187635D-01     -0.696388D-02
   zzx       -0.109812D+03     -0.948688D+00     -0.352096D+00
   xzy       -0.172883D+01     -0.149357D-01     -0.554325D-02
   yzy       -0.551891D+02     -0.476791D+00     -0.176956D+00
   zzy       -0.311658D+00     -0.269249D-02     -0.999290D-03
   xzz       -0.137000D+03     -0.118357D+01     -0.439272D+00
   yzz       -0.225510D+00     -0.194823D-02     -0.723068D-03
   zzz        0.825971D+00      0.713574D-02      0.264836D-02

 ----------------------------------------------------------------------

 Dipole orientation:
    78          0.28926611          0.00820243          1.88345427
     6         -0.11484193         -0.00233444         -1.96840530
     7          0.34272608         -3.81941908          2.55873738
     7          0.37679874          3.83935833          2.53830495
     6          0.23109697          5.62735910          0.74718684
     6          0.17681050         -5.61469781          0.77669945
     6          0.61099965          4.51594179          5.05114763
     6          0.57974982         -4.48562524          5.07396440
     6          0.74370770         -2.32884256          6.80461023
     6          0.75882257          2.36683805          6.79269707
     6          1.00704338          2.30711839          9.43229730
     6          0.68637923          7.08042801          5.71546540
     6          0.53307162          8.92767678          3.85478206
     6          0.30509366          8.19299140          1.32200905
     6          0.99292073         -2.25717430          9.44379492
     6          1.12413401          0.02793175         10.76092313
     6          0.65033700         -7.04764617          5.74894502
     6          0.48118006         -8.90249832          3.89715239
     1          0.84291986         -7.55803902          7.73195784
     6          0.23695034         -8.17787672          1.36291971
     6          0.63328631          0.01628405          5.55556619
     9          1.11543075         -4.40031825         10.78890845
     9          1.14228502          4.45628287         10.76664678
     1         -0.00272476         -4.93851367         -1.16152735
     6         -0.00539696        -10.13926874         -0.68676927
     1          0.54464735        -10.89642498          4.42349428
     1          0.04449968          4.94346846         -1.18774591
     6          0.19081348         10.14633007         -0.74657332
     1          0.86360410          7.59845708          7.69788972
     1          0.58405044         10.92368426          4.37407507
     6         -0.44002388         -0.01216840         -4.28264376
     6         -0.84861716         -0.02340989         -6.95536659
     6         -1.11031640          2.24306131         -8.34708847
     6         -1.03441883         -2.30168056         -8.34009123
     6         -1.53788539          2.24689103        -10.93961699
     6         -1.46076799         -2.32767432        -10.93273253
     6         -1.73268470         -0.04639659        -12.32425486
     7         -2.16588225         -0.05750164        -14.89069777
     1          1.31835332          0.03247604         12.81167691
     9         -1.49461457         11.96965603         -0.20361042
     9         -0.46252834          9.13714060         -2.98123952
     9          2.43702180         11.29849019         -1.06545897
     9          0.17203009         -9.12641296         -3.00665145
     9         -2.24044971        -11.34829761         -0.55799979
     9          1.79963908        -11.91745967         -0.48441787
     1         -0.97803436          4.04969550         -7.35374522
     1         -1.72599433          4.05854012        -11.89939867
     1         -1.58667041         -4.14743200        -11.88744631
     1         -0.84099545         -4.09983452         -7.34139507
     6         -2.44352129          2.30717715        -16.25027704
     6         -2.36313730         -2.43427842        -16.24324004
     1         -0.73476842          3.50054428        -16.11132114
     1         -4.05525985          3.43580267        -15.54799321
     1         -2.77608615          1.91067540        -18.25720933
     1         -3.93215057         -3.61681319        -15.53320909
     1         -0.61293427         -3.56628759        -16.10577796
     1         -2.71481992         -2.05538458        -18.25032489

 Electric dipole moment (dipole orientation):
 (Debye = 10**-18 statcoulomb cm , SI units = C m)
                  (au)            (Debye)         (10**-30 SI)
   Tot        0.128041D+01      0.325448D+01      0.108558D+02
   x          0.000000D+00      0.000000D+00      0.000000D+00
   y          0.000000D+00      0.000000D+00      0.000000D+00
   z          0.128041D+01      0.325448D+01      0.108558D+02

 Dipole polarizability, Alpha (dipole orientation).
 (esu units = cm**3 , SI units = C**2 m**2 J**-1)
 Alpha(0;0):
               (au)            (10**-24 esu)      (10**-40 SI)
   iso        0.629054D+03      0.932161D+02      0.103717D+03
   aniso      0.616492D+03      0.913547D+02      0.101646D+03
   xx         0.256920D+03      0.380717D+02      0.423604D+02
   yx         0.675994D+00      0.100172D+00      0.111456D+00
   yy         0.691843D+03      0.102521D+03      0.114070D+03
   zx         0.873282D+02      0.129407D+02      0.143985D+02
   zy         0.119051D+01      0.176415D+00      0.196288D+00
   zz         0.938397D+03      0.139056D+03      0.154721D+03

 Dipole polarizability, Alpha (dipole orientation).
 (esu units = cm**3 , SI units = C**2 m**2 J**-1)
 Alpha(0;0):
               (au)            (10**-24 esu)      (10**-40 SI)
   iso        0.629054D+03      0.932161D+02      0.103717D+03
   aniso      0.616492D+03      0.913547D+02      0.101646D+03
   xx         0.256920D+03      0.380717D+02      0.423604D+02
   yx         0.675994D+00      0.100172D+00      0.111456D+00
   yy         0.691843D+03      0.102521D+03      0.114070D+03
   zx         0.873282D+02      0.129407D+02      0.143985D+02
   zy         0.119051D+01      0.176415D+00      0.196288D+00
   zz         0.938397D+03      0.139056D+03      0.154721D+03
 Alpha(-w;w) w= 1907.0nm:
                  (au)         (10**-24 esu)      (10**-40 SI)
   iso        0.527927D+03      0.782307D+02      0.870433D+02
   aniso      0.558158D+03      0.827105D+02      0.920279D+02
   xx         0.194564D+03      0.288314D+02      0.320793D+02
   yx         0.911207D+00      0.135027D+00      0.150238D+00
   yy         0.575731D+03      0.853146D+02      0.949253D+02
   zx         0.797814D+02      0.118224D+02      0.131542D+02
   zy         0.113235D+01      0.167796D+00      0.186699D+00
   zz         0.813485D+03      0.120546D+03      0.134126D+03

 First dipole hyperpolarizability, Beta (dipole orientation).
 ||, _|_  parallel and perpendicular components, (z) with respect to z axis,
 vector components x,y,z.  Values do not include the 1/n! factor of 1/2.
 (esu units = statvolt**-1 cm**4 , SI units = C**3 m**3 J**-2)
 Beta(0;0,0):
               (au)            (10**-30 esu)      (10**-50 SI)
   || (z)     0.345818D+05      0.298759D+03      0.110882D+03
   _|_(z)     0.115273D+05      0.995865D+02      0.369605D+02
   x          0.235557D+05      0.203503D+03      0.755279D+02
   y          0.654937D+03      0.565814D+01      0.209996D+01
   z          0.172909D+06      0.149380D+04      0.554408D+03
   ||         0.349014D+05      0.301521D+03      0.111907D+03
   xxx        0.622732D+02      0.537992D+00      0.199670D+00
   xxy        0.118314D+02      0.102214D+00      0.379357D-01
   yxy        0.342603D+03      0.295982D+01      0.109851D+01
   yyy        0.310765D+02      0.268477D+00      0.996424D-01
   xxz        0.778912D+03      0.672919D+01      0.249747D+01
   yxz        0.588439D+02      0.508365D+00      0.188675D+00
   yyz        0.208844D+04      0.180425D+02      0.669631D+01
   zxz        0.744701D+04      0.643364D+02      0.238778D+02
   zyz        0.175404D+03      0.151536D+01      0.562410D+00
   zzz        0.547689D+05      0.473161D+03      0.175609D+03

 First dipole hyperpolarizability, Beta (dipole orientation).
 ||, _|_  parallel and perpendicular components, (z) with respect to z axis,
 vector components x,y,z.  Values do not include the 1/n! factor of 1/2.
 (esu units = statvolt**-1 cm**4 , SI units = C**3 m**3 J**-2)
 Beta(0;0,0):
               (au)            (10**-30 esu)      (10**-50 SI)
   || (z)     0.345818D+05      0.298759D+03      0.110882D+03
   _|_(z)     0.115273D+05      0.995865D+02      0.369605D+02
   x          0.235557D+05      0.203503D+03      0.755279D+02
   y          0.654937D+03      0.565814D+01      0.209996D+01
   z          0.172909D+06      0.149380D+04      0.554408D+03
   ||         0.349014D+05      0.301521D+03      0.111907D+03
   xxx        0.622732D+02      0.537992D+00      0.199670D+00
   xxy        0.118314D+02      0.102214D+00      0.379357D-01
   yxy        0.342603D+03      0.295982D+01      0.109851D+01
   yyy        0.310765D+02      0.268477D+00      0.996424D-01
   xxz        0.778912D+03      0.672919D+01      0.249747D+01
   yxz        0.588439D+02      0.508365D+00      0.188675D+00
   yyz        0.208844D+04      0.180425D+02      0.669631D+01
   zxz        0.744701D+04      0.643364D+02      0.238778D+02
   zyz        0.175404D+03      0.151536D+01      0.562410D+00
   zzz        0.547689D+05      0.473161D+03      0.175609D+03
 Beta(-w;w,0) w= 1907.0nm:
                  (au)         (10**-30 esu)      (10**-50 SI)
   || (z)     0.306426D+05      0.264728D+03      0.982512D+02
   _|_(z)     0.101287D+05      0.875042D+02      0.324763D+02
   x          0.208810D+05      0.180396D+03      0.669521D+02
   y          0.576681D+03      0.498208D+01      0.184905D+01
   z          0.153213D+06      0.132364D+04      0.491256D+03
   ||         0.309261D+05      0.267177D+03      0.991602D+02
   xxx        0.721374D+02      0.623211D+00      0.231299D+00
   yxx        0.975692D+01      0.842922D-01      0.312842D-01
   yyx        0.304514D+03      0.263077D+01      0.976383D+00
   zxx        0.739153D+03      0.638571D+01      0.236999D+01
   zyx        0.495801D+02      0.428334D+00      0.158972D+00
   zzx        0.653623D+04      0.564679D+02      0.209575D+02
   xxy        0.103171D+02      0.891318D-01      0.330804D-01
   yxy        0.354058D+03      0.305878D+01      0.113524D+01
   yyy        0.293023D+02      0.253149D+00      0.939537D-01
   zxy        0.500545D+02      0.432432D+00      0.160493D+00
   zyy        0.227619D+04      0.196645D+02      0.729828D+01
   zzy        0.151447D+03      0.130838D+01      0.485594D+00
   xxz        0.799400D+03      0.690619D+01      0.256316D+01
   yxz        0.481544D+02      0.416017D+00      0.154401D+00
   yyz        0.195948D+04      0.169284D+02      0.628281D+01
   zxz        0.655787D+04      0.566549D+02      0.210269D+02
   zyz        0.153748D+03      0.132826D+01      0.492972D+00
   zzz        0.481411D+05      0.415902D+03      0.154358D+03
 Beta(-2w;w,w) w= 1907.0nm:
                  (au)         (10**-30 esu)      (10**-50 SI)
   || (z)     0.426765D+05      0.368691D+03      0.136836D+03
   _|_(z)     0.144182D+05      0.124562D+03      0.462298D+02
   x          0.290371D+05      0.250858D+03      0.931036D+02
   y          0.783904D+03      0.677232D+01      0.251348D+01
   z          0.213382D+06      0.184346D+04      0.684181D+03
   ||         0.430701D+05      0.372092D+03      0.138098D+03
   xxx        0.118563D+03      0.102429D+01      0.380156D+00
   yxx        0.119170D+02      0.102954D+00      0.382103D-01
   zxx        0.108562D+04      0.937892D+01      0.348089D+01
   xyx        0.125824D+02      0.108702D+00      0.403437D-01
   yyx        0.510872D+03      0.441354D+01      0.163804D+01
   zyx        0.647997D+02      0.559819D+00      0.207771D+00
   xyy        0.595982D+03      0.514882D+01      0.191093D+01
   yyy        0.445585D+02      0.384951D+00      0.142871D+00
   zyy        0.411366D+04      0.355389D+02      0.131899D+02
   xzx        0.111491D+04      0.963194D+01      0.357480D+01
   yzx        0.604537D+02      0.522273D+00      0.193836D+00
   zzx        0.901634D+04      0.778941D+02      0.289096D+02
   xzy        0.597094D+02      0.515842D+00      0.191450D+00
   yzy        0.350639D+04      0.302924D+02      0.112427D+02
   zzy        0.203582D+03      0.175879D+01      0.652757D+00
   xzz        0.903105D+04      0.780212D+02      0.289568D+02
   yzz        0.205983D+03      0.177954D+01      0.660457D+00
   zzz        0.663135D+05      0.572897D+03      0.212625D+03

 ----------------------------------------------------------------------
 Unable to Open any file for archive entry.
 1\1\GINC-NQTCM16\SP\RB3LYP\Gen\C28H17F8N3Pt1\NQTCM\12-Apr-2023\0\\#p B
 3LYP/gen gfinput Integral(Grid=UltraFine,Acc2E=12) scf=maxcycle=200 Po
 lar=(DCSHG) CPHF=RdFreq scrf=(iefpcm,solvent=n,n-DiMethylFormamide)\\P
 rimeira Hiperpolarizabilidade\\0,1\Pt,0,1.008098,-0.002554,-0.023564\C
 ,0,-1.040778,0.006667,-0.073725\N,0,1.351872,-2.030588,-0.021851\N,0,1
 .371945,2.022246,-0.008714\C,0,0.428756,2.975399,-0.046602\C,0,0.39874
 9,-2.973631,-0.063676\C,0,2.709059,2.370496,0.042286\C,0,2.685437,-2.3
 92871,0.022148\C,0,3.612802,-1.258329,0.063032\C,0,3.625038,1.226484,0
 .074159\C,0,5.026887,1.184637,0.123314\C,0,3.072337,3.724956,0.058798\
 C,0,2.092345,4.709726,0.020417\C,0,0.74498,4.330839,-0.035451\C,0,5.01
 4989,-1.230647,0.112194\C,0,5.723602,-0.026575,0.142658\C,0,3.034924,-
 3.751151,0.020208\C,0,2.044754,-4.725434,-0.024916\H,0,4.086755,-4.028
 899,0.051962\C,0,0.700942,-4.332187,-0.06618\C,0,2.958548,-0.012537,0.
 045884\F,0,5.721231,-2.369922,0.130392\F,0,5.744306,2.316718,0.152261\
 H,0,-0.628075,-2.608296,-0.098527\C,0,-0.398457,-5.36228,-0.086817\H,0
 ,2.317868,-5.782506,-0.030833\H,0,-0.601877,2.621014,-0.083278\C,0,-0.
 341058,5.372771,-0.108014\H,0,4.126637,3.99134,0.102923\H,0,2.375744,5
 .7639,0.037457\C,0,-2.277388,0.010047,-0.060642\C,0,-3.707803,0.013889
 ,-0.028194\C,0,-4.447523,1.218102,0.023999\C,0,-4.45558,-1.186483,-0.0
 34584\C,0,-5.837091,1.229509,0.071927\C,0,-5.845235,-1.190852,0.01257\
 C,0,-6.585491,0.021157,0.070201\N,0,-7.961809,0.02453,0.122795\H,0,6.8
 13007,-0.032126,0.180343\F,0,-0.164121,6.329015,0.821111\F,0,-1.561973
 ,4.845788,0.078463\F,0,-0.351158,5.992134,-1.303574\F,0,-1.600001,-4.8
 15854,-0.333542\F,0,-0.487575,-6.010889,1.089708\F,0,-0.175967,-6.2973
 5,-1.027787\H,0,-3.910527,2.170366,0.029839\H,0,-6.346824,2.1915,0.112
 978\H,0,-6.361574,-2.1502,0.005956\H,0,-3.925014,-2.141478,-0.075718\C
 ,0,-8.685382,1.280514,0.185956\C,0,-8.693844,-1.228145,0.124189\H,0,-8
 .491668,1.917746,-0.696229\H,0,-8.422404,1.868759,1.084316\H,0,-9.7626
 69,1.077962,0.222194\H,0,-8.432484,-1.862718,0.990876\H,0,-8.506737,-1
 .821219,-0.789689\H,0,-9.76963,-1.020469,0.17373\\Version=EM64L-G16Rev
 C.01\State=1-A\HF=-19340.0746262\RMSD=4.474e-09\Dipole=1.2697346,-0.01
 02386,0.1646927\Polar=949.405765,-0.5622469,691.8184029,2.522333,3.030
 8326,245.9366916\HyperPolar=56280.0639562,-175.7192489,2115.5640553,-1
 1.8055301,-285.4247661,-15.7858401,-70.6189337,-228.0626494,0.113751,-
 15.1693571\Quadrupole=34.224067,-6.7695475,-27.4545195,-0.1253706,-0.9
 892203,0.756857\PG=C01 [X(C28H17F8N3Pt1)]\\@
 The archive entry for this job was punched.


 THE 2ND LAW OF THERMODYNAMICS HAS THE SAME
 DEGREE OF TRUTH AS THE STATEMENT THAT IF YOU THROW
 A TUMBLERFULL OF WATER INTO THE SEA, YOU CANNOT GET
 THE SAME TUMBLERFULL OF WATER OUT AGAIN.
          - J.C. MAXWELL, LETTER TO LORD RAYLEIGH, DECEMBER 6,1870
 Job cpu time:       0 days 11 hours  2 minutes  0.4 seconds.
 Elapsed time:       0 days  0 hours 55 minutes 18.7 seconds.
 File lengths (MBytes):  RWF=   4502 Int=      0 D2E=      0 Chk=     35 Scr=      1
 Normal termination of Gaussian 16 at Wed Apr 12 14:41:35 2023.
