 Entering Gaussian System, Link 0=g09
 Input=OPT_B3LYP_LANL2TZF_def2SVP_ONL_B3LYP_LANL2TZF_SAPPOROTZP2021_IEFPCM.com
 Output=OPT_B3LYP_LANL2TZF_def2SVP_ONL_B3LYP_LANL2TZF_SAPPOROTZP2021_IEFPCM.log
 Initial command:
 /home/scr/programs/g09/l1.exe "/home/scr/guest/Gau-27923.inp" -scrdir="/home/scr/guest/"
 Entering Link 1 = /home/scr/programs/g09/l1.exe PID=     27924.
  
 Copyright (c) 1988,1990,1992,1993,1995,1998,2003,2009,2013,
            Gaussian, Inc.  All Rights Reserved.
  
 This is part of the Gaussian(R) 09 program.  It is based on
 the Gaussian(R) 03 system (copyright 2003, Gaussian, Inc.),
 the Gaussian(R) 98 system (copyright 1998, Gaussian, Inc.),
 the Gaussian(R) 94 system (copyright 1995, Gaussian, Inc.),
 the Gaussian 92(TM) system (copyright 1992, Gaussian, Inc.),
 the Gaussian 90(TM) system (copyright 1990, Gaussian, Inc.),
 the Gaussian 88(TM) system (copyright 1988, Gaussian, Inc.),
 the Gaussian 86(TM) system (copyright 1986, Carnegie Mellon
 University), and the Gaussian 82(TM) system (copyright 1983,
 Carnegie Mellon University). Gaussian is a federally registered
 trademark of Gaussian, Inc.
  
 This software contains proprietary and confidential information,
 including trade secrets, belonging to Gaussian, Inc.
  
 This software is provided under written license and may be
 used, copied, transmitted, or stored only in accord with that
 written license.
  
 The following legend is applicable only to US Government
 contracts under FAR:
  
                    RESTRICTED RIGHTS LEGEND
  
 Use, reproduction and disclosure by the US Government is
 subject to restrictions as set forth in subparagraphs (a)
 and (c) of the Commercial Computer Software - Restricted
 Rights clause in FAR 52.227-19.
  
 Gaussian, Inc.
 340 Quinnipiac St., Bldg. 40, Wallingford CT 06492
  
  
 ---------------------------------------------------------------
 Warning -- This program may not be used in any manner that
 competes with the business of Gaussian, Inc. or will provide
 assistance to any competitor of Gaussian, Inc.  The licensee
 of this program is prohibited from giving any competitor of
 Gaussian, Inc. access to this program.  By using this program,
 the user acknowledges that Gaussian, Inc. is engaged in the
 business of creating and licensing software in the field of
 computational chemistry and represents and warrants to the
 licensee that it is not a competitor of Gaussian, Inc. and that
 it will not use this program in any manner prohibited above.
 ---------------------------------------------------------------
  

 Cite this work as:
 Gaussian 09, Revision D.01,
 M. J. Frisch, G. W. Trucks, H. B. Schlegel, G. E. Scuseria, 
 M. A. Robb, J. R. Cheeseman, G. Scalmani, V. Barone, B. Mennucci, 
 G. A. Petersson, H. Nakatsuji, M. Caricato, X. Li, H. P. Hratchian, 
 A. F. Izmaylov, J. Bloino, G. Zheng, J. L. Sonnenberg, M. Hada, 
 M. Ehara, K. Toyota, R. Fukuda, J. Hasegawa, M. Ishida, T. Nakajima, 
 Y. Honda, O. Kitao, H. Nakai, T. Vreven, J. A. Montgomery, Jr., 
 J. E. Peralta, F. Ogliaro, M. Bearpark, J. J. Heyd, E. Brothers, 
 K. N. Kudin, V. N. Staroverov, T. Keith, R. Kobayashi, J. Normand, 
 K. Raghavachari, A. Rendell, J. C. Burant, S. S. Iyengar, J. Tomasi, 
 M. Cossi, N. Rega, J. M. Millam, M. Klene, J. E. Knox, J. B. Cross, 
 V. Bakken, C. Adamo, J. Jaramillo, R. Gomperts, R. E. Stratmann, 
 O. Yazyev, A. J. Austin, R. Cammi, C. Pomelli, J. W. Ochterski, 
 R. L. Martin, K. Morokuma, V. G. Zakrzewski, G. A. Voth, 
 P. Salvador, J. J. Dannenberg, S. Dapprich, A. D. Daniels, 
 O. Farkas, J. B. Foresman, J. V. Ortiz, J. Cioslowski, 
 and D. J. Fox, Gaussian, Inc., Wallingford CT, 2013.
 
 ******************************************
 Gaussian 09:  EM64L-G09RevD.01 24-Apr-2013
                19-May-2023 
 ******************************************
 %chk=OPT_B3LYP_LANL2TZF_def2SVP_ONL_B3LYP_LANL2TZF_SAPPOROTZP2012_IEFPCM.chk
 %mem=100Gb
 %nproc=32
 Will use up to   32 processors via shared memory.
 ----------------------------------------------------------------------
 #p B3LYP/gen gfinput pseudo=read Integral(Grid=UltraFine,Acc2E=12) scf
 =maxcycle=200 Polar=(DCSHG) CPHF=RdFreq scrf=(iefpcm,read,solvent=n,n-
 DiMethylFormamide)
 ----------------------------------------------------------------------
 1/38=1,40=2,83=1/1;
 2/12=2,17=6,18=5,40=1/2;
 3/5=7,11=2,16=1,17=8,24=10,25=1,30=1,70=2203,72=148,74=-5,75=-5/1,2,3;
 4//1;
 5/5=2,7=200,38=5,53=148,87=12,98=1/2;
 8/6=4,10=90,11=11,87=12/1;
 10/6=20001,13=10,72=3,87=12/2;
 6/7=2,8=2,9=2,10=2,28=1/1;
 99/5=1,9=1/99;
 Leave Link    1 at Fri May 19 23:34:35 2023, MaxMem= 13421772800 cpu:       161.8
 (Enter /home/scr/programs/g09/l101.exe)
 ------------------------------
 Primeira Hiperpolarizabilidade
 ------------------------------
 Symbolic Z-matrix:
 Charge =  0 Multiplicity = 1
 Pt                    1.0081   -0.00255  -0.02356 
 C                    -1.04078   0.00667  -0.07373 
 N                     1.35187  -2.03059  -0.02185 
 N                     1.37195   2.02225  -0.00871 
 C                     0.42876   2.9754   -0.0466 
 C                     0.39875  -2.97363  -0.06368 
 C                     2.70906   2.3705    0.04229 
 C                     2.68544  -2.39287   0.02215 
 C                     3.6128   -1.25833   0.06303 
 C                     3.62504   1.22648   0.07416 
 C                     5.02689   1.18464   0.12331 
 C                     3.07234   3.72496   0.0588 
 C                     2.09234   4.70973   0.02042 
 C                     0.74498   4.33084  -0.03545 
 C                     5.01499  -1.23065   0.11219 
 C                     5.7236   -0.02658   0.14266 
 C                     3.03492  -3.75115   0.02021 
 C                     2.04475  -4.72543  -0.02492 
 H                     4.08676  -4.0289    0.05196 
 C                     0.70094  -4.33219  -0.06618 
 C                     2.95855  -0.01254   0.04588 
 F                     5.72123  -2.36992   0.13039 
 F                     5.74431   2.31672   0.15226 
 H                    -0.62808  -2.6083   -0.09853 
 C                    -0.39846  -5.36228  -0.08682 
 H                     2.31787  -5.78251  -0.03083 
 H                    -0.60188   2.62101  -0.08328 
 C                    -0.34106   5.37277  -0.10801 
 H                     4.12664   3.99134   0.10292 
 H                     2.37574   5.7639    0.03746 
 C                    -2.27739   0.01005  -0.06064 
 C                    -3.7078    0.01389  -0.02819 
 C                    -4.44752   1.2181    0.024 
 C                    -4.45558  -1.18648  -0.03458 
 C                    -5.83709   1.22951   0.07193 
 C                    -5.84524  -1.19085   0.01257 
 C                    -6.58549   0.02116   0.0702 
 N                    -7.96181   0.02453   0.1228 
 H                     6.81301  -0.03213   0.18034 
 F                    -0.16412   6.32902   0.82111 
 F                    -1.56197   4.84579   0.07846 
 F                    -0.35116   5.99213  -1.30357 
 F                    -1.6      -4.81585  -0.33354 
 F                    -0.48758  -6.01089   1.08971 
 F                    -0.17597  -6.29735  -1.02779 
 H                    -3.91053   2.17037   0.02984 
 H                    -6.34682   2.1915    0.11298 
 H                    -6.36157  -2.1502    0.00596 
 H                    -3.92501  -2.14148  -0.07572 
 C                    -8.68538   1.28051   0.18596 
 C                    -8.69384  -1.22815   0.12419 
 H                    -8.49167   1.91775  -0.69623 
 H                    -8.4224    1.86876   1.08432 
 H                    -9.76267   1.07796   0.22219 
 H                    -8.43248  -1.86272   0.99088 
 H                    -8.50674  -1.82122  -0.78969 
 H                    -9.76963  -1.02047   0.17373 
 
 NAtoms=     57 NQM=       57 NQMF=       0 NMMI=      0 NMMIF=      0
                NMic=       0 NMicF=      0.
                    Isotopes and Nuclear Properties:
 (Nuclear quadrupole moments (NQMom) in fm**2, nuclear magnetic moments (NMagM)
  in nuclear magnetons)

  Atom         1           2           3           4           5           6           7           8           9          10
 IAtWgt=         195          12          14          14          12          12          12          12          12          12
 AtmWgt= 194.9648000  12.0000000  14.0030740  14.0030740  12.0000000  12.0000000  12.0000000  12.0000000  12.0000000  12.0000000
 NucSpn=           1           0           2           2           0           0           0           0           0           0
 AtZEff=   0.0000000   0.0000000   0.0000000   0.0000000   0.0000000   0.0000000   0.0000000   0.0000000   0.0000000   0.0000000
 NQMom=    0.0000000   0.0000000   2.0440000   2.0440000   0.0000000   0.0000000   0.0000000   0.0000000   0.0000000   0.0000000
 NMagM=    0.6095000   0.0000000   0.4037610   0.4037610   0.0000000   0.0000000   0.0000000   0.0000000   0.0000000   0.0000000
 AtZNuc=  78.0000000   6.0000000   7.0000000   7.0000000   6.0000000   6.0000000   6.0000000   6.0000000   6.0000000   6.0000000

  Atom        11          12          13          14          15          16          17          18          19          20
 IAtWgt=          12          12          12          12          12          12          12          12           1          12
 AtmWgt=  12.0000000  12.0000000  12.0000000  12.0000000  12.0000000  12.0000000  12.0000000  12.0000000   1.0078250  12.0000000
 NucSpn=           0           0           0           0           0           0           0           0           1           0
 AtZEff=   0.0000000   0.0000000   0.0000000   0.0000000   0.0000000   0.0000000   0.0000000   0.0000000   0.0000000   0.0000000
 NQMom=    0.0000000   0.0000000   0.0000000   0.0000000   0.0000000   0.0000000   0.0000000   0.0000000   0.0000000   0.0000000
 NMagM=    0.0000000   0.0000000   0.0000000   0.0000000   0.0000000   0.0000000   0.0000000   0.0000000   2.7928460   0.0000000
 AtZNuc=   6.0000000   6.0000000   6.0000000   6.0000000   6.0000000   6.0000000   6.0000000   6.0000000   1.0000000   6.0000000

  Atom        21          22          23          24          25          26          27          28          29          30
 IAtWgt=          12          19          19           1          12           1           1          12           1           1
 AtmWgt=  12.0000000  18.9984033  18.9984033   1.0078250  12.0000000   1.0078250   1.0078250  12.0000000   1.0078250   1.0078250
 NucSpn=           0           1           1           1           0           1           1           0           1           1
 AtZEff=   0.0000000   0.0000000   0.0000000   0.0000000   0.0000000   0.0000000   0.0000000   0.0000000   0.0000000   0.0000000
 NQMom=    0.0000000   0.0000000   0.0000000   0.0000000   0.0000000   0.0000000   0.0000000   0.0000000   0.0000000   0.0000000
 NMagM=    0.0000000   2.6288670   2.6288670   2.7928460   0.0000000   2.7928460   2.7928460   0.0000000   2.7928460   2.7928460
 AtZNuc=   6.0000000   9.0000000   9.0000000   1.0000000   6.0000000   1.0000000   1.0000000   6.0000000   1.0000000   1.0000000

  Atom        31          32          33          34          35          36          37          38          39          40
 IAtWgt=          12          12          12          12          12          12          12          14           1          19
 AtmWgt=  12.0000000  12.0000000  12.0000000  12.0000000  12.0000000  12.0000000  12.0000000  14.0030740   1.0078250  18.9984033
 NucSpn=           0           0           0           0           0           0           0           2           1           1
 AtZEff=   0.0000000   0.0000000   0.0000000   0.0000000   0.0000000   0.0000000   0.0000000   0.0000000   0.0000000   0.0000000
 NQMom=    0.0000000   0.0000000   0.0000000   0.0000000   0.0000000   0.0000000   0.0000000   2.0440000   0.0000000   0.0000000
 NMagM=    0.0000000   0.0000000   0.0000000   0.0000000   0.0000000   0.0000000   0.0000000   0.4037610   2.7928460   2.6288670
 AtZNuc=   6.0000000   6.0000000   6.0000000   6.0000000   6.0000000   6.0000000   6.0000000   7.0000000   1.0000000   9.0000000

  Atom        41          42          43          44          45          46          47          48          49          50
 IAtWgt=          19          19          19          19          19           1           1           1           1          12
 AtmWgt=  18.9984033  18.9984033  18.9984033  18.9984033  18.9984033   1.0078250   1.0078250   1.0078250   1.0078250  12.0000000
 NucSpn=           1           1           1           1           1           1           1           1           1           0
 AtZEff=   0.0000000   0.0000000   0.0000000   0.0000000   0.0000000   0.0000000   0.0000000   0.0000000   0.0000000   0.0000000
 NQMom=    0.0000000   0.0000000   0.0000000   0.0000000   0.0000000   0.0000000   0.0000000   0.0000000   0.0000000   0.0000000
 NMagM=    2.6288670   2.6288670   2.6288670   2.6288670   2.6288670   2.7928460   2.7928460   2.7928460   2.7928460   0.0000000
 AtZNuc=   9.0000000   9.0000000   9.0000000   9.0000000   9.0000000   1.0000000   1.0000000   1.0000000   1.0000000   6.0000000

  Atom        51          52          53          54          55          56          57
 IAtWgt=          12           1           1           1           1           1           1
 AtmWgt=  12.0000000   1.0078250   1.0078250   1.0078250   1.0078250   1.0078250   1.0078250
 NucSpn=           0           1           1           1           1           1           1
 AtZEff=   0.0000000   0.0000000   0.0000000   0.0000000   0.0000000   0.0000000   0.0000000
 NQMom=    0.0000000   0.0000000   0.0000000   0.0000000   0.0000000   0.0000000   0.0000000
 NMagM=    0.0000000   2.7928460   2.7928460   2.7928460   2.7928460   2.7928460   2.7928460
 AtZNuc=   6.0000000   1.0000000   1.0000000   1.0000000   1.0000000   1.0000000   1.0000000
 Using perturbation frequencies:    0.000000    0.023893
 Leave Link  101 at Fri May 19 23:34:35 2023, MaxMem= 13421772800 cpu:         6.0
 (Enter /home/scr/programs/g09/l202.exe)
 Stoichiometry    C28H17F8N3Pt
 Framework group  C1[X(C28H17F8N3Pt)]
 Deg. of freedom   165
 Full point group                 C1      NOp   1
 Largest Abelian subgroup         C1      NOp   1
 Largest concise Abelian subgroup C1      NOp   1
                         Standard orientation:                         
 ---------------------------------------------------------------------
 Center     Atomic      Atomic             Coordinates (Angstroms)
 Number     Number       Type             X           Y           Z
 ---------------------------------------------------------------------
      1         78           0       -1.008098   -0.002554    0.023564
      2          6           0        1.040778    0.006667    0.073725
      3          7           0       -1.351872   -2.030588    0.021851
      4          7           0       -1.371945    2.022246    0.008714
      5          6           0       -0.428755    2.975399    0.046602
      6          6           0       -0.398749   -2.973631    0.063676
      7          6           0       -2.709059    2.370497   -0.042286
      8          6           0       -2.685437   -2.392870   -0.022148
      9          6           0       -3.612802   -1.258328   -0.063032
     10          6           0       -3.625038    1.226485   -0.074159
     11          6           0       -5.026887    1.184638   -0.123314
     12          6           0       -3.072336    3.724957   -0.058798
     13          6           0       -2.092344    4.709726   -0.020417
     14          6           0       -0.744979    4.330839    0.035451
     15          6           0       -5.014989   -1.230646   -0.112194
     16          6           0       -5.723602   -0.026574   -0.142658
     17          6           0       -3.034925   -3.751150   -0.020208
     18          6           0       -2.044755   -4.725434    0.024916
     19          1           0       -4.086756   -4.028898   -0.051962
     20          6           0       -0.700943   -4.332187    0.066180
     21          6           0       -2.958548   -0.012536   -0.045884
     22          9           0       -5.721231   -2.369921   -0.130392
     23          9           0       -5.744306    2.316719   -0.152261
     24          1           0        0.628075   -2.608296    0.098527
     25          6           0        0.398456   -5.362280    0.086817
     26          1           0       -2.317869   -5.782506    0.030833
     27          1           0        0.601877    2.621014    0.083278
     28          6           0        0.341059    5.372771    0.108014
     29          1           0       -4.126636    3.991341   -0.102923
     30          1           0       -2.375743    5.763900   -0.037457
     31          6           0        2.277388    0.010047    0.060642
     32          6           0        3.707803    0.013889    0.028194
     33          6           0        4.447523    1.218101   -0.023999
     34          6           0        4.455580   -1.186484    0.034584
     35          6           0        5.837091    1.229508   -0.071927
     36          6           0        5.845235   -1.190853   -0.012570
     37          6           0        6.585491    0.021156   -0.070201
     38          7           0        7.961809    0.024529   -0.122795
     39          1           0       -6.813007   -0.032125   -0.180343
     40          9           0        0.164122    6.329015   -0.821111
     41          9           0        1.561974    4.845788   -0.078463
     42          9           0        0.351159    5.992134    1.303574
     43          9           0        1.600000   -4.815854    0.333542
     44          9           0        0.487574   -6.010889   -1.089708
     45          9           0        0.175966   -6.297350    1.027787
     46          1           0        3.910527    2.170366   -0.029839
     47          1           0        6.346824    2.191499   -0.112978
     48          1           0        6.361574   -2.150201   -0.005956
     49          1           0        3.925014   -2.141478    0.075718
     50          6           0        8.685382    1.280513   -0.185956
     51          6           0        8.693844   -1.228146   -0.124189
     52          1           0        8.491668    1.917745    0.696229
     53          1           0        8.422404    1.868758   -1.084316
     54          1           0        9.762669    1.077961   -0.222194
     55          1           0        8.432484   -1.862719   -0.990876
     56          1           0        8.506737   -1.821220    0.789689
     57          1           0        9.769630   -1.020470   -0.173730
 ---------------------------------------------------------------------
 Rotational constants (GHZ):      0.0734786      0.0557567      0.0320899
 Leave Link  202 at Fri May 19 23:34:36 2023, MaxMem= 13421772800 cpu:         2.0
 (Enter /home/scr/programs/g09/l301.exe)
 General basis read from cards:  (5D, 7F)
 Centers:      19     24     26     27     29     30     39     46     47     48
 Centers:      49     52     53     54     55     56     57
 S 4 1.00
     Exponent=  8.2921778100D+01 Coefficients=  6.1626000000D-03
     Exponent=  1.2452416000D+01 Coefficients=  4.7142300000D-02
     Exponent=  2.8330522000D+00 Coefficients=  2.3231380000D-01
     Exponent=  8.0000970000D-01 Coefficients=  7.9074940000D-01
 S 1 1.00
     Exponent=  2.5859460000D-01 Coefficients=  1.0000000000D+00
 S 1 1.00
     Exponent=  8.9969000000D-02 Coefficients=  1.0000000000D+00
 P 2 1.00
     Exponent=  2.8606730000D+00 Coefficients=  1.8093120000D-01
     Exponent=  8.8819000000D-01 Coefficients=  8.7021120000D-01
 P 1 1.00
     Exponent=  3.0377600000D-01 Coefficients=  1.0000000000D+00
 D 2 1.00
     Exponent=  1.7706130000D+00 Coefficients=  3.8165420000D-01
     Exponent=  5.9308100000D-01 Coefficients=  7.2122540000D-01
 ****
 Centers:       2      5      6      7      8      9     10     11     12     13
 Centers:      14     15     16     17     18     20     21     25     28     31
 Centers:      32     33     34     35     36     37     50     51
 S 4 1.00
     Exponent=  2.8069439980D+03 Coefficients=  6.3870000000D-03
     Exponent=  4.2157755000D+02 Coefficients=  4.8733000000D-02
     Exponent=  9.5895740000D+01 Coefficients=  2.3726300000D-01
     Exponent=  2.6944550000D+01 Coefficients=  7.8594300000D-01
 S 1 1.00
     Exponent=  8.5713780000D+00 Coefficients=  1.0000000000D+00
 S 1 1.00
     Exponent=  2.8716360000D+00 Coefficients=  1.0000000000D+00
 S 2 1.00
     Exponent=  4.9998840000D+00 Coefficients= -2.1068000000D-01
     Exponent=  5.3276100000D-01 Coefficients=  1.0776810000D+00
 S 1 1.00
     Exponent=  2.0751200000D-01 Coefficients=  1.0000000000D+00
 S 1 1.00
     Exponent=  8.6834000000D-02 Coefficients=  1.0000000000D+00
 P 1 1.00
     Exponent=  1.3016380000D+01 Coefficients=  1.0000000000D+00
 P 3 1.00
     Exponent=  1.8681885000D+01 Coefficients=  3.9472000000D-02
     Exponent=  4.1250370000D+00 Coefficients=  2.4438900000D-01
     Exponent=  1.1979790000D+00 Coefficients=  8.1521900000D-01
 P 1 1.00
     Exponent=  3.8215900000D-01 Coefficients=  1.0000000000D+00
 P 1 1.00
     Exponent=  1.2068900000D-01 Coefficients=  1.0000000000D+00
 D 2 1.00
     Exponent=  3.0148490000D+00 Coefficients=  1.1198400000D-01
     Exponent=  8.8206400000D-01 Coefficients=  9.3546430000D-01
 D 1 1.00
     Exponent=  2.8546000000D-01 Coefficients=  1.0000000000D+00
 F 2 1.00
     Exponent=  1.2468250000D+00 Coefficients=  4.3968500000D-01
     Exponent=  4.3904300000D-01 Coefficients=  6.8633900000D-01
 ****
 Centers:       3      4     38
 S 4 1.00
     Exponent=  3.8562068590D+03 Coefficients=  6.3490000000D-03
     Exponent=  5.7915746000D+02 Coefficients=  4.8460000000D-02
     Exponent=  1.3174336000D+02 Coefficients=  2.3640800000D-01
     Exponent=  3.7042541000D+01 Coefficients=  7.8678500000D-01
 S 1 1.00
     Exponent=  1.1819738000D+01 Coefficients=  1.0000000000D+00
 S 1 1.00
     Exponent=  3.9709940000D+00 Coefficients=  1.0000000000D+00
 S 2 1.00
     Exponent=  7.2064940000D+00 Coefficients= -2.1242000000D-01
     Exponent=  7.7387800000D-01 Coefficients=  1.0786700000D+00
 S 1 1.00
     Exponent=  3.0008400000D-01 Coefficients=  1.0000000000D+00
 S 1 1.00
     Exponent=  1.2383600000D-01 Coefficients=  1.0000000000D+00
 P 1 1.00
     Exponent=  1.8144222000D+01 Coefficients=  1.0000000000D+00
 P 3 1.00
     Exponent=  2.6602804000D+01 Coefficients=  3.9841000000D-02
     Exponent=  5.9420010000D+00 Coefficients=  2.4910700000D-01
     Exponent=  1.7406590000D+00 Coefficients=  8.1036200000D-01
 P 1 1.00
     Exponent=  5.5452800000D-01 Coefficients=  1.0000000000D+00
 P 1 1.00
     Exponent=  1.7236700000D-01 Coefficients=  1.0000000000D+00
 D 2 1.00
     Exponent=  4.5862240000D+00 Coefficients=  1.1804600000D-01
     Exponent=  1.3187720000D+00 Coefficients=  9.3269500000D-01
 D 1 1.00
     Exponent=  4.2138400000D-01 Coefficients=  1.0000000000D+00
 F 2 1.00
     Exponent=  1.8264550000D+00 Coefficients=  4.2395490000D-01
     Exponent=  6.2216400000D-01 Coefficients=  7.0642470000D-01
 ****
 Centers:      22     23     40     41     42     43     44     45
 S 4 1.00
     Exponent=  6.4598229240D+03 Coefficients=  6.2960000000D-03
     Exponent=  9.7016221700D+02 Coefficients=  4.8086000000D-02
     Exponent=  2.2069704700D+02 Coefficients=  2.3523000000D-01
     Exponent=  6.2114849000D+01 Coefficients=  7.8794100000D-01
 S 1 1.00
     Exponent=  1.9901451000D+01 Coefficients=  1.0000000000D+00
 S 1 1.00
     Exponent=  6.7129310000D+00 Coefficients=  1.0000000000D+00
 S 2 1.00
     Exponent=  1.2822312000D+01 Coefficients= -2.1337200000D-01
     Exponent=  1.3940730000D+00 Coefficients=  1.0797400000D+00
 S 1 1.00
     Exponent=  5.3833800000D-01 Coefficients=  1.0000000000D+00
 S 1 1.00
     Exponent=  2.1649400000D-01 Coefficients=  1.0000000000D+00
 P 1 1.00
     Exponent=  3.0664906000D+01 Coefficients=  1.0000000000D+00
 P 3 1.00
     Exponent=  4.3842681000D+01 Coefficients=  4.1945000000D-02
     Exponent=  9.9159510000D+00 Coefficients=  2.6284300000D-01
     Exponent=  2.9279720000D+00 Coefficients=  7.9759700000D-01
 P 1 1.00
     Exponent=  9.1244300000D-01 Coefficients=  1.0000000000D+00
 P 1 1.00
     Exponent=  2.6689500000D-01 Coefficients=  1.0000000000D+00
 D 2 1.00
     Exponent=  7.7201640000D+00 Coefficients=  1.4808290000D-01
     Exponent=  2.3088990000D+00 Coefficients=  9.1119760000D-01
 D 1 1.00
     Exponent=  7.6187600000D-01 Coefficients=  1.0000000000D+00
 F 2 1.00
     Exponent=  3.1505920000D+00 Coefficients=  4.2535020000D-01
     Exponent=  1.0122970000D+00 Coefficients=  7.1635840000D-01
 ****
 Centers:       1
 S 1 1.00
     Exponent=  2.5470000000D+00 Coefficients=  1.0000000000D+00
 S 1 1.00
     Exponent=  1.6140000000D+00 Coefficients=  1.0000000000D+00
 S 1 1.00
     Exponent=  5.1670000000D-01 Coefficients=  1.0000000000D+00
 S 1 1.00
     Exponent=  2.6510000000D-01 Coefficients=  1.0000000000D+00
 S 1 1.00
     Exponent=  5.8000000000D-02 Coefficients=  1.0000000000D+00
 P 1 1.00
     Exponent=  2.9110000000D+00 Coefficients=  1.0000000000D+00
 P 1 1.00
     Exponent=  1.8360000000D+00 Coefficients=  1.0000000000D+00
 P 1 1.00
     Exponent=  5.9820000000D-01 Coefficients=  1.0000000000D+00
 P 1 1.00
     Exponent=  9.9600000000D-02 Coefficients=  1.0000000000D+00
 P 1 1.00
     Exponent=  2.9000000000D-02 Coefficients=  1.0000000000D+00
 D 1 1.00
     Exponent=  1.2430000000D+00 Coefficients=  1.0000000000D+00
 D 1 1.00
     Exponent=  4.2710000000D-01 Coefficients=  1.0000000000D+00
 D 1 1.00
     Exponent=  1.3700000000D-01 Coefficients=  1.0000000000D+00
 F 1 1.00
     Exponent=  9.9300000000D-01 Coefficients=  1.0000000000D+00
 ****
 ======================================================================================================
                                       Pseudopotential Parameters
 ======================================================================================================
  Center     Atomic      Valence      Angular      Power
  Number     Number     Electrons     Momentum     of R      Exponent        Coefficient   SO-Coeffient
 ======================================================================================================
    1         78           18
                                      G and up 
                                                     1      728.9394056       -0.16192680    0.00000000
                                                     2      320.6567800    -1320.28738520    0.00000000
                                                     2       52.8680174     -298.31781350    0.00000000
                                                     2       12.0280128      -87.58370650    0.00000000
                                                     2        3.5238913       -8.14932740    0.00000000
                                      S - G
                                                     0      409.4437358        2.73342180    0.00000000
                                                     1      274.5419231       59.70243290    0.00000000
                                                     2      127.5658570      891.45895500    0.00000000
                                                     2       32.9036631      368.44676560    0.00000000
                                                     2        5.0593880      238.02630900    0.00000000
                                                     2        4.1506556     -107.05564540    0.00000000
                                      P - G
                                                     0      466.1728892        1.88785680    0.00000000
                                                     1      120.7888259       76.01386290    0.00000000
                                                     2       36.4118791      343.55111160    0.00000000
                                                     2        5.6985408      119.49117860    0.00000000
                                      D - G
                                                     0      249.5650763        2.93436780    0.00000000
                                                     1      126.6678585       59.33065710    0.00000000
                                                     2       63.1430586      452.44451940    0.00000000
                                                     2       17.9059470      210.47694790    0.00000000
                                                     2        4.2239373       58.62541120    0.00000000
                                      F - G
                                                     0      121.8158799        3.95342530    0.00000000
                                                     1       60.8757030       53.85551820    0.00000000
                                                     2       31.4767147      247.43051330    0.00000000
                                                     2        9.8811751      127.81879760    0.00000000
                                                     2        2.7319874       15.37720460    0.00000000
    2          6
                                   No pseudopotential on this center.
    3          7
                                   No pseudopotential on this center.
    4          7
                                   No pseudopotential on this center.
    5          6
                                   No pseudopotential on this center.
    6          6
                                   No pseudopotential on this center.
    7          6
                                   No pseudopotential on this center.
    8          6
                                   No pseudopotential on this center.
    9          6
                                   No pseudopotential on this center.
   10          6
                                   No pseudopotential on this center.
   11          6
                                   No pseudopotential on this center.
   12          6
                                   No pseudopotential on this center.
   13          6
                                   No pseudopotential on this center.
   14          6
                                   No pseudopotential on this center.
   15          6
                                   No pseudopotential on this center.
   16          6
                                   No pseudopotential on this center.
   17          6
                                   No pseudopotential on this center.
   18          6
                                   No pseudopotential on this center.
   19          1
                                   No pseudopotential on this center.
   20          6
                                   No pseudopotential on this center.
   21          6
                                   No pseudopotential on this center.
   22          9
                                   No pseudopotential on this center.
   23          9
                                   No pseudopotential on this center.
   24          1
                                   No pseudopotential on this center.
   25          6
                                   No pseudopotential on this center.
   26          1
                                   No pseudopotential on this center.
   27          1
                                   No pseudopotential on this center.
   28          6
                                   No pseudopotential on this center.
   29          1
                                   No pseudopotential on this center.
   30          1
                                   No pseudopotential on this center.
   31          6
                                   No pseudopotential on this center.
   32          6
                                   No pseudopotential on this center.
   33          6
                                   No pseudopotential on this center.
   34          6
                                   No pseudopotential on this center.
   35          6
                                   No pseudopotential on this center.
   36          6
                                   No pseudopotential on this center.
   37          6
                                   No pseudopotential on this center.
   38          7
                                   No pseudopotential on this center.
   39          1
                                   No pseudopotential on this center.
   40          9
                                   No pseudopotential on this center.
   41          9
                                   No pseudopotential on this center.
   42          9
                                   No pseudopotential on this center.
   43          9
                                   No pseudopotential on this center.
   44          9
                                   No pseudopotential on this center.
   45          9
                                   No pseudopotential on this center.
   46          1
                                   No pseudopotential on this center.
   47          1
                                   No pseudopotential on this center.
   48          1
                                   No pseudopotential on this center.
   49          1
                                   No pseudopotential on this center.
   50          6
                                   No pseudopotential on this center.
   51          6
                                   No pseudopotential on this center.
   52          1
                                   No pseudopotential on this center.
   53          1
                                   No pseudopotential on this center.
   54          1
                                   No pseudopotential on this center.
   55          1
                                   No pseudopotential on this center.
   56          1
                                   No pseudopotential on this center.
   57          1
                                   No pseudopotential on this center.
 ======================================================================================================
 Ernie: Thresh=  0.10000D-02 Tol=  0.10000D-05 Strict=F.
 AO basis set in the form of general basis input (Overlap normalization):
      1 0
 S   1 1.00       0.000000000000
      0.2547000000D+01  0.1000000000D+01
 S   1 1.00       0.000000000000
      0.1614000000D+01  0.1000000000D+01
 S   1 1.00       0.000000000000
      0.5167000000D+00  0.1000000000D+01
 S   1 1.00       0.000000000000
      0.2651000000D+00  0.1000000000D+01
 S   1 1.00       0.000000000000
      0.5800000000D-01  0.1000000000D+01
 P   1 1.00       0.000000000000
      0.2911000000D+01  0.1000000000D+01
 P   1 1.00       0.000000000000
      0.1836000000D+01  0.1000000000D+01
 P   1 1.00       0.000000000000
      0.5982000000D+00  0.1000000000D+01
 P   1 1.00       0.000000000000
      0.9960000000D-01  0.1000000000D+01
 P   1 1.00       0.000000000000
      0.2900000000D-01  0.1000000000D+01
 D   1 1.00       0.000000000000
      0.1243000000D+01  0.1000000000D+01
 D   1 1.00       0.000000000000
      0.4271000000D+00  0.1000000000D+01
 D   1 1.00       0.000000000000
      0.1370000000D+00  0.1000000000D+01
 F   1 1.00       0.000000000000
      0.9930000000D+00  0.1000000000D+01
 ****
      2 0
 S   4 1.00       0.000000000000
      0.2806943998D+04  0.6387002842D-02
      0.4215775500D+03  0.4873302169D-01
      0.9589574000D+02  0.2372631056D+00
      0.2694455000D+02  0.7859433498D+00
 S   2 1.00       0.000000000000
      0.4999884000D+01 -0.2106800177D+00
      0.5327610000D+00  0.1077681091D+01
 S   1 1.00       0.000000000000
      0.8571378000D+01  0.1000000000D+01
 S   1 1.00       0.000000000000
      0.2871636000D+01  0.1000000000D+01
 S   1 1.00       0.000000000000
      0.2075120000D+00  0.1000000000D+01
 S   1 1.00       0.000000000000
      0.8683400000D-01  0.1000000000D+01
 P   3 1.00       0.000000000000
      0.1868188500D+02  0.3947198053D-01
      0.4125037000D+01  0.2443888795D+00
      0.1197979000D+01  0.8152185980D+00
 P   1 1.00       0.000000000000
      0.1301638000D+02  0.1000000000D+01
 P   1 1.00       0.000000000000
      0.3821590000D+00  0.1000000000D+01
 P   1 1.00       0.000000000000
      0.1206890000D+00  0.1000000000D+01
 D   2 1.00       0.000000000000
      0.3014849000D+01  0.1119839973D+00
      0.8820640000D+00  0.9354642774D+00
 D   1 1.00       0.000000000000
      0.2854600000D+00  0.1000000000D+01
 F   2 1.00       0.000000000000
      0.1246825000D+01  0.4396849984D+00
      0.4390430000D+00  0.6863389975D+00
 ****
      3 0
 S   4 1.00       0.000000000000
      0.3856206859D+04  0.6349001676D-02
      0.5791574600D+03  0.4846001279D-01
      0.1317433600D+03  0.2364080624D+00
      0.3704254100D+02  0.7867852077D+00
 S   2 1.00       0.000000000000
      0.7206494000D+01 -0.2124200382D+00
      0.7738780000D+00  0.1078670194D+01
 S   1 1.00       0.000000000000
      0.1181973800D+02  0.1000000000D+01
 S   1 1.00       0.000000000000
      0.3970994000D+01  0.1000000000D+01
 S   1 1.00       0.000000000000
      0.3000840000D+00  0.1000000000D+01
 S   1 1.00       0.000000000000
      0.1238360000D+00  0.1000000000D+01
 P   3 1.00       0.000000000000
      0.2660280400D+02  0.3984099232D-01
      0.5942001000D+01  0.2491069520D+00
      0.1740659000D+01  0.8103618438D+00
 P   1 1.00       0.000000000000
      0.1814422200D+02  0.1000000000D+01
 P   1 1.00       0.000000000000
      0.5545280000D+00  0.1000000000D+01
 P   1 1.00       0.000000000000
      0.1723670000D+00  0.1000000000D+01
 D   2 1.00       0.000000000000
      0.4586224000D+01  0.1180460031D+00
      0.1318772000D+01  0.9326950242D+00
 D   1 1.00       0.000000000000
      0.4213840000D+00  0.1000000000D+01
 F   2 1.00       0.000000000000
      0.1826455000D+01  0.4239548993D+00
      0.6221640000D+00  0.7064246988D+00
 ****
      4 0
 S   4 1.00       0.000000000000
      0.3856206859D+04  0.6349001676D-02
      0.5791574600D+03  0.4846001279D-01
      0.1317433600D+03  0.2364080624D+00
      0.3704254100D+02  0.7867852077D+00
 S   2 1.00       0.000000000000
      0.7206494000D+01 -0.2124200382D+00
      0.7738780000D+00  0.1078670194D+01
 S   1 1.00       0.000000000000
      0.1181973800D+02  0.1000000000D+01
 S   1 1.00       0.000000000000
      0.3970994000D+01  0.1000000000D+01
 S   1 1.00       0.000000000000
      0.3000840000D+00  0.1000000000D+01
 S   1 1.00       0.000000000000
      0.1238360000D+00  0.1000000000D+01
 P   3 1.00       0.000000000000
      0.2660280400D+02  0.3984099232D-01
      0.5942001000D+01  0.2491069520D+00
      0.1740659000D+01  0.8103618438D+00
 P   1 1.00       0.000000000000
      0.1814422200D+02  0.1000000000D+01
 P   1 1.00       0.000000000000
      0.5545280000D+00  0.1000000000D+01
 P   1 1.00       0.000000000000
      0.1723670000D+00  0.1000000000D+01
 D   2 1.00       0.000000000000
      0.4586224000D+01  0.1180460031D+00
      0.1318772000D+01  0.9326950242D+00
 D   1 1.00       0.000000000000
      0.4213840000D+00  0.1000000000D+01
 F   2 1.00       0.000000000000
      0.1826455000D+01  0.4239548993D+00
      0.6221640000D+00  0.7064246988D+00
 ****
      5 0
 S   4 1.00       0.000000000000
      0.2806943998D+04  0.6387002842D-02
      0.4215775500D+03  0.4873302169D-01
      0.9589574000D+02  0.2372631056D+00
      0.2694455000D+02  0.7859433498D+00
 S   2 1.00       0.000000000000
      0.4999884000D+01 -0.2106800177D+00
      0.5327610000D+00  0.1077681091D+01
 S   1 1.00       0.000000000000
      0.8571378000D+01  0.1000000000D+01
 S   1 1.00       0.000000000000
      0.2871636000D+01  0.1000000000D+01
 S   1 1.00       0.000000000000
      0.2075120000D+00  0.1000000000D+01
 S   1 1.00       0.000000000000
      0.8683400000D-01  0.1000000000D+01
 P   3 1.00       0.000000000000
      0.1868188500D+02  0.3947198053D-01
      0.4125037000D+01  0.2443888795D+00
      0.1197979000D+01  0.8152185980D+00
 P   1 1.00       0.000000000000
      0.1301638000D+02  0.1000000000D+01
 P   1 1.00       0.000000000000
      0.3821590000D+00  0.1000000000D+01
 P   1 1.00       0.000000000000
      0.1206890000D+00  0.1000000000D+01
 D   2 1.00       0.000000000000
      0.3014849000D+01  0.1119839973D+00
      0.8820640000D+00  0.9354642774D+00
 D   1 1.00       0.000000000000
      0.2854600000D+00  0.1000000000D+01
 F   2 1.00       0.000000000000
      0.1246825000D+01  0.4396849984D+00
      0.4390430000D+00  0.6863389975D+00
 ****
      6 0
 S   4 1.00       0.000000000000
      0.2806943998D+04  0.6387002842D-02
      0.4215775500D+03  0.4873302169D-01
      0.9589574000D+02  0.2372631056D+00
      0.2694455000D+02  0.7859433498D+00
 S   2 1.00       0.000000000000
      0.4999884000D+01 -0.2106800177D+00
      0.5327610000D+00  0.1077681091D+01
 S   1 1.00       0.000000000000
      0.8571378000D+01  0.1000000000D+01
 S   1 1.00       0.000000000000
      0.2871636000D+01  0.1000000000D+01
 S   1 1.00       0.000000000000
      0.2075120000D+00  0.1000000000D+01
 S   1 1.00       0.000000000000
      0.8683400000D-01  0.1000000000D+01
 P   3 1.00       0.000000000000
      0.1868188500D+02  0.3947198053D-01
      0.4125037000D+01  0.2443888795D+00
      0.1197979000D+01  0.8152185980D+00
 P   1 1.00       0.000000000000
      0.1301638000D+02  0.1000000000D+01
 P   1 1.00       0.000000000000
      0.3821590000D+00  0.1000000000D+01
 P   1 1.00       0.000000000000
      0.1206890000D+00  0.1000000000D+01
 D   2 1.00       0.000000000000
      0.3014849000D+01  0.1119839973D+00
      0.8820640000D+00  0.9354642774D+00
 D   1 1.00       0.000000000000
      0.2854600000D+00  0.1000000000D+01
 F   2 1.00       0.000000000000
      0.1246825000D+01  0.4396849984D+00
      0.4390430000D+00  0.6863389975D+00
 ****
      7 0
 S   4 1.00       0.000000000000
      0.2806943998D+04  0.6387002842D-02
      0.4215775500D+03  0.4873302169D-01
      0.9589574000D+02  0.2372631056D+00
      0.2694455000D+02  0.7859433498D+00
 S   2 1.00       0.000000000000
      0.4999884000D+01 -0.2106800177D+00
      0.5327610000D+00  0.1077681091D+01
 S   1 1.00       0.000000000000
      0.8571378000D+01  0.1000000000D+01
 S   1 1.00       0.000000000000
      0.2871636000D+01  0.1000000000D+01
 S   1 1.00       0.000000000000
      0.2075120000D+00  0.1000000000D+01
 S   1 1.00       0.000000000000
      0.8683400000D-01  0.1000000000D+01
 P   3 1.00       0.000000000000
      0.1868188500D+02  0.3947198053D-01
      0.4125037000D+01  0.2443888795D+00
      0.1197979000D+01  0.8152185980D+00
 P   1 1.00       0.000000000000
      0.1301638000D+02  0.1000000000D+01
 P   1 1.00       0.000000000000
      0.3821590000D+00  0.1000000000D+01
 P   1 1.00       0.000000000000
      0.1206890000D+00  0.1000000000D+01
 D   2 1.00       0.000000000000
      0.3014849000D+01  0.1119839973D+00
      0.8820640000D+00  0.9354642774D+00
 D   1 1.00       0.000000000000
      0.2854600000D+00  0.1000000000D+01
 F   2 1.00       0.000000000000
      0.1246825000D+01  0.4396849984D+00
      0.4390430000D+00  0.6863389975D+00
 ****
      8 0
 S   4 1.00       0.000000000000
      0.2806943998D+04  0.6387002842D-02
      0.4215775500D+03  0.4873302169D-01
      0.9589574000D+02  0.2372631056D+00
      0.2694455000D+02  0.7859433498D+00
 S   2 1.00       0.000000000000
      0.4999884000D+01 -0.2106800177D+00
      0.5327610000D+00  0.1077681091D+01
 S   1 1.00       0.000000000000
      0.8571378000D+01  0.1000000000D+01
 S   1 1.00       0.000000000000
      0.2871636000D+01  0.1000000000D+01
 S   1 1.00       0.000000000000
      0.2075120000D+00  0.1000000000D+01
 S   1 1.00       0.000000000000
      0.8683400000D-01  0.1000000000D+01
 P   3 1.00       0.000000000000
      0.1868188500D+02  0.3947198053D-01
      0.4125037000D+01  0.2443888795D+00
      0.1197979000D+01  0.8152185980D+00
 P   1 1.00       0.000000000000
      0.1301638000D+02  0.1000000000D+01
 P   1 1.00       0.000000000000
      0.3821590000D+00  0.1000000000D+01
 P   1 1.00       0.000000000000
      0.1206890000D+00  0.1000000000D+01
 D   2 1.00       0.000000000000
      0.3014849000D+01  0.1119839973D+00
      0.8820640000D+00  0.9354642774D+00
 D   1 1.00       0.000000000000
      0.2854600000D+00  0.1000000000D+01
 F   2 1.00       0.000000000000
      0.1246825000D+01  0.4396849984D+00
      0.4390430000D+00  0.6863389975D+00
 ****
      9 0
 S   4 1.00       0.000000000000
      0.2806943998D+04  0.6387002842D-02
      0.4215775500D+03  0.4873302169D-01
      0.9589574000D+02  0.2372631056D+00
      0.2694455000D+02  0.7859433498D+00
 S   2 1.00       0.000000000000
      0.4999884000D+01 -0.2106800177D+00
      0.5327610000D+00  0.1077681091D+01
 S   1 1.00       0.000000000000
      0.8571378000D+01  0.1000000000D+01
 S   1 1.00       0.000000000000
      0.2871636000D+01  0.1000000000D+01
 S   1 1.00       0.000000000000
      0.2075120000D+00  0.1000000000D+01
 S   1 1.00       0.000000000000
      0.8683400000D-01  0.1000000000D+01
 P   3 1.00       0.000000000000
      0.1868188500D+02  0.3947198053D-01
      0.4125037000D+01  0.2443888795D+00
      0.1197979000D+01  0.8152185980D+00
 P   1 1.00       0.000000000000
      0.1301638000D+02  0.1000000000D+01
 P   1 1.00       0.000000000000
      0.3821590000D+00  0.1000000000D+01
 P   1 1.00       0.000000000000
      0.1206890000D+00  0.1000000000D+01
 D   2 1.00       0.000000000000
      0.3014849000D+01  0.1119839973D+00
      0.8820640000D+00  0.9354642774D+00
 D   1 1.00       0.000000000000
      0.2854600000D+00  0.1000000000D+01
 F   2 1.00       0.000000000000
      0.1246825000D+01  0.4396849984D+00
      0.4390430000D+00  0.6863389975D+00
 ****
     10 0
 S   4 1.00       0.000000000000
      0.2806943998D+04  0.6387002842D-02
      0.4215775500D+03  0.4873302169D-01
      0.9589574000D+02  0.2372631056D+00
      0.2694455000D+02  0.7859433498D+00
 S   2 1.00       0.000000000000
      0.4999884000D+01 -0.2106800177D+00
      0.5327610000D+00  0.1077681091D+01
 S   1 1.00       0.000000000000
      0.8571378000D+01  0.1000000000D+01
 S   1 1.00       0.000000000000
      0.2871636000D+01  0.1000000000D+01
 S   1 1.00       0.000000000000
      0.2075120000D+00  0.1000000000D+01
 S   1 1.00       0.000000000000
      0.8683400000D-01  0.1000000000D+01
 P   3 1.00       0.000000000000
      0.1868188500D+02  0.3947198053D-01
      0.4125037000D+01  0.2443888795D+00
      0.1197979000D+01  0.8152185980D+00
 P   1 1.00       0.000000000000
      0.1301638000D+02  0.1000000000D+01
 P   1 1.00       0.000000000000
      0.3821590000D+00  0.1000000000D+01
 P   1 1.00       0.000000000000
      0.1206890000D+00  0.1000000000D+01
 D   2 1.00       0.000000000000
      0.3014849000D+01  0.1119839973D+00
      0.8820640000D+00  0.9354642774D+00
 D   1 1.00       0.000000000000
      0.2854600000D+00  0.1000000000D+01
 F   2 1.00       0.000000000000
      0.1246825000D+01  0.4396849984D+00
      0.4390430000D+00  0.6863389975D+00
 ****
     11 0
 S   4 1.00       0.000000000000
      0.2806943998D+04  0.6387002842D-02
      0.4215775500D+03  0.4873302169D-01
      0.9589574000D+02  0.2372631056D+00
      0.2694455000D+02  0.7859433498D+00
 S   2 1.00       0.000000000000
      0.4999884000D+01 -0.2106800177D+00
      0.5327610000D+00  0.1077681091D+01
 S   1 1.00       0.000000000000
      0.8571378000D+01  0.1000000000D+01
 S   1 1.00       0.000000000000
      0.2871636000D+01  0.1000000000D+01
 S   1 1.00       0.000000000000
      0.2075120000D+00  0.1000000000D+01
 S   1 1.00       0.000000000000
      0.8683400000D-01  0.1000000000D+01
 P   3 1.00       0.000000000000
      0.1868188500D+02  0.3947198053D-01
      0.4125037000D+01  0.2443888795D+00
      0.1197979000D+01  0.8152185980D+00
 P   1 1.00       0.000000000000
      0.1301638000D+02  0.1000000000D+01
 P   1 1.00       0.000000000000
      0.3821590000D+00  0.1000000000D+01
 P   1 1.00       0.000000000000
      0.1206890000D+00  0.1000000000D+01
 D   2 1.00       0.000000000000
      0.3014849000D+01  0.1119839973D+00
      0.8820640000D+00  0.9354642774D+00
 D   1 1.00       0.000000000000
      0.2854600000D+00  0.1000000000D+01
 F   2 1.00       0.000000000000
      0.1246825000D+01  0.4396849984D+00
      0.4390430000D+00  0.6863389975D+00
 ****
     12 0
 S   4 1.00       0.000000000000
      0.2806943998D+04  0.6387002842D-02
      0.4215775500D+03  0.4873302169D-01
      0.9589574000D+02  0.2372631056D+00
      0.2694455000D+02  0.7859433498D+00
 S   2 1.00       0.000000000000
      0.4999884000D+01 -0.2106800177D+00
      0.5327610000D+00  0.1077681091D+01
 S   1 1.00       0.000000000000
      0.8571378000D+01  0.1000000000D+01
 S   1 1.00       0.000000000000
      0.2871636000D+01  0.1000000000D+01
 S   1 1.00       0.000000000000
      0.2075120000D+00  0.1000000000D+01
 S   1 1.00       0.000000000000
      0.8683400000D-01  0.1000000000D+01
 P   3 1.00       0.000000000000
      0.1868188500D+02  0.3947198053D-01
      0.4125037000D+01  0.2443888795D+00
      0.1197979000D+01  0.8152185980D+00
 P   1 1.00       0.000000000000
      0.1301638000D+02  0.1000000000D+01
 P   1 1.00       0.000000000000
      0.3821590000D+00  0.1000000000D+01
 P   1 1.00       0.000000000000
      0.1206890000D+00  0.1000000000D+01
 D   2 1.00       0.000000000000
      0.3014849000D+01  0.1119839973D+00
      0.8820640000D+00  0.9354642774D+00
 D   1 1.00       0.000000000000
      0.2854600000D+00  0.1000000000D+01
 F   2 1.00       0.000000000000
      0.1246825000D+01  0.4396849984D+00
      0.4390430000D+00  0.6863389975D+00
 ****
     13 0
 S   4 1.00       0.000000000000
      0.2806943998D+04  0.6387002842D-02
      0.4215775500D+03  0.4873302169D-01
      0.9589574000D+02  0.2372631056D+00
      0.2694455000D+02  0.7859433498D+00
 S   2 1.00       0.000000000000
      0.4999884000D+01 -0.2106800177D+00
      0.5327610000D+00  0.1077681091D+01
 S   1 1.00       0.000000000000
      0.8571378000D+01  0.1000000000D+01
 S   1 1.00       0.000000000000
      0.2871636000D+01  0.1000000000D+01
 S   1 1.00       0.000000000000
      0.2075120000D+00  0.1000000000D+01
 S   1 1.00       0.000000000000
      0.8683400000D-01  0.1000000000D+01
 P   3 1.00       0.000000000000
      0.1868188500D+02  0.3947198053D-01
      0.4125037000D+01  0.2443888795D+00
      0.1197979000D+01  0.8152185980D+00
 P   1 1.00       0.000000000000
      0.1301638000D+02  0.1000000000D+01
 P   1 1.00       0.000000000000
      0.3821590000D+00  0.1000000000D+01
 P   1 1.00       0.000000000000
      0.1206890000D+00  0.1000000000D+01
 D   2 1.00       0.000000000000
      0.3014849000D+01  0.1119839973D+00
      0.8820640000D+00  0.9354642774D+00
 D   1 1.00       0.000000000000
      0.2854600000D+00  0.1000000000D+01
 F   2 1.00       0.000000000000
      0.1246825000D+01  0.4396849984D+00
      0.4390430000D+00  0.6863389975D+00
 ****
     14 0
 S   4 1.00       0.000000000000
      0.2806943998D+04  0.6387002842D-02
      0.4215775500D+03  0.4873302169D-01
      0.9589574000D+02  0.2372631056D+00
      0.2694455000D+02  0.7859433498D+00
 S   2 1.00       0.000000000000
      0.4999884000D+01 -0.2106800177D+00
      0.5327610000D+00  0.1077681091D+01
 S   1 1.00       0.000000000000
      0.8571378000D+01  0.1000000000D+01
 S   1 1.00       0.000000000000
      0.2871636000D+01  0.1000000000D+01
 S   1 1.00       0.000000000000
      0.2075120000D+00  0.1000000000D+01
 S   1 1.00       0.000000000000
      0.8683400000D-01  0.1000000000D+01
 P   3 1.00       0.000000000000
      0.1868188500D+02  0.3947198053D-01
      0.4125037000D+01  0.2443888795D+00
      0.1197979000D+01  0.8152185980D+00
 P   1 1.00       0.000000000000
      0.1301638000D+02  0.1000000000D+01
 P   1 1.00       0.000000000000
      0.3821590000D+00  0.1000000000D+01
 P   1 1.00       0.000000000000
      0.1206890000D+00  0.1000000000D+01
 D   2 1.00       0.000000000000
      0.3014849000D+01  0.1119839973D+00
      0.8820640000D+00  0.9354642774D+00
 D   1 1.00       0.000000000000
      0.2854600000D+00  0.1000000000D+01
 F   2 1.00       0.000000000000
      0.1246825000D+01  0.4396849984D+00
      0.4390430000D+00  0.6863389975D+00
 ****
     15 0
 S   4 1.00       0.000000000000
      0.2806943998D+04  0.6387002842D-02
      0.4215775500D+03  0.4873302169D-01
      0.9589574000D+02  0.2372631056D+00
      0.2694455000D+02  0.7859433498D+00
 S   2 1.00       0.000000000000
      0.4999884000D+01 -0.2106800177D+00
      0.5327610000D+00  0.1077681091D+01
 S   1 1.00       0.000000000000
      0.8571378000D+01  0.1000000000D+01
 S   1 1.00       0.000000000000
      0.2871636000D+01  0.1000000000D+01
 S   1 1.00       0.000000000000
      0.2075120000D+00  0.1000000000D+01
 S   1 1.00       0.000000000000
      0.8683400000D-01  0.1000000000D+01
 P   3 1.00       0.000000000000
      0.1868188500D+02  0.3947198053D-01
      0.4125037000D+01  0.2443888795D+00
      0.1197979000D+01  0.8152185980D+00
 P   1 1.00       0.000000000000
      0.1301638000D+02  0.1000000000D+01
 P   1 1.00       0.000000000000
      0.3821590000D+00  0.1000000000D+01
 P   1 1.00       0.000000000000
      0.1206890000D+00  0.1000000000D+01
 D   2 1.00       0.000000000000
      0.3014849000D+01  0.1119839973D+00
      0.8820640000D+00  0.9354642774D+00
 D   1 1.00       0.000000000000
      0.2854600000D+00  0.1000000000D+01
 F   2 1.00       0.000000000000
      0.1246825000D+01  0.4396849984D+00
      0.4390430000D+00  0.6863389975D+00
 ****
     16 0
 S   4 1.00       0.000000000000
      0.2806943998D+04  0.6387002842D-02
      0.4215775500D+03  0.4873302169D-01
      0.9589574000D+02  0.2372631056D+00
      0.2694455000D+02  0.7859433498D+00
 S   2 1.00       0.000000000000
      0.4999884000D+01 -0.2106800177D+00
      0.5327610000D+00  0.1077681091D+01
 S   1 1.00       0.000000000000
      0.8571378000D+01  0.1000000000D+01
 S   1 1.00       0.000000000000
      0.2871636000D+01  0.1000000000D+01
 S   1 1.00       0.000000000000
      0.2075120000D+00  0.1000000000D+01
 S   1 1.00       0.000000000000
      0.8683400000D-01  0.1000000000D+01
 P   3 1.00       0.000000000000
      0.1868188500D+02  0.3947198053D-01
      0.4125037000D+01  0.2443888795D+00
      0.1197979000D+01  0.8152185980D+00
 P   1 1.00       0.000000000000
      0.1301638000D+02  0.1000000000D+01
 P   1 1.00       0.000000000000
      0.3821590000D+00  0.1000000000D+01
 P   1 1.00       0.000000000000
      0.1206890000D+00  0.1000000000D+01
 D   2 1.00       0.000000000000
      0.3014849000D+01  0.1119839973D+00
      0.8820640000D+00  0.9354642774D+00
 D   1 1.00       0.000000000000
      0.2854600000D+00  0.1000000000D+01
 F   2 1.00       0.000000000000
      0.1246825000D+01  0.4396849984D+00
      0.4390430000D+00  0.6863389975D+00
 ****
     17 0
 S   4 1.00       0.000000000000
      0.2806943998D+04  0.6387002842D-02
      0.4215775500D+03  0.4873302169D-01
      0.9589574000D+02  0.2372631056D+00
      0.2694455000D+02  0.7859433498D+00
 S   2 1.00       0.000000000000
      0.4999884000D+01 -0.2106800177D+00
      0.5327610000D+00  0.1077681091D+01
 S   1 1.00       0.000000000000
      0.8571378000D+01  0.1000000000D+01
 S   1 1.00       0.000000000000
      0.2871636000D+01  0.1000000000D+01
 S   1 1.00       0.000000000000
      0.2075120000D+00  0.1000000000D+01
 S   1 1.00       0.000000000000
      0.8683400000D-01  0.1000000000D+01
 P   3 1.00       0.000000000000
      0.1868188500D+02  0.3947198053D-01
      0.4125037000D+01  0.2443888795D+00
      0.1197979000D+01  0.8152185980D+00
 P   1 1.00       0.000000000000
      0.1301638000D+02  0.1000000000D+01
 P   1 1.00       0.000000000000
      0.3821590000D+00  0.1000000000D+01
 P   1 1.00       0.000000000000
      0.1206890000D+00  0.1000000000D+01
 D   2 1.00       0.000000000000
      0.3014849000D+01  0.1119839973D+00
      0.8820640000D+00  0.9354642774D+00
 D   1 1.00       0.000000000000
      0.2854600000D+00  0.1000000000D+01
 F   2 1.00       0.000000000000
      0.1246825000D+01  0.4396849984D+00
      0.4390430000D+00  0.6863389975D+00
 ****
     18 0
 S   4 1.00       0.000000000000
      0.2806943998D+04  0.6387002842D-02
      0.4215775500D+03  0.4873302169D-01
      0.9589574000D+02  0.2372631056D+00
      0.2694455000D+02  0.7859433498D+00
 S   2 1.00       0.000000000000
      0.4999884000D+01 -0.2106800177D+00
      0.5327610000D+00  0.1077681091D+01
 S   1 1.00       0.000000000000
      0.8571378000D+01  0.1000000000D+01
 S   1 1.00       0.000000000000
      0.2871636000D+01  0.1000000000D+01
 S   1 1.00       0.000000000000
      0.2075120000D+00  0.1000000000D+01
 S   1 1.00       0.000000000000
      0.8683400000D-01  0.1000000000D+01
 P   3 1.00       0.000000000000
      0.1868188500D+02  0.3947198053D-01
      0.4125037000D+01  0.2443888795D+00
      0.1197979000D+01  0.8152185980D+00
 P   1 1.00       0.000000000000
      0.1301638000D+02  0.1000000000D+01
 P   1 1.00       0.000000000000
      0.3821590000D+00  0.1000000000D+01
 P   1 1.00       0.000000000000
      0.1206890000D+00  0.1000000000D+01
 D   2 1.00       0.000000000000
      0.3014849000D+01  0.1119839973D+00
      0.8820640000D+00  0.9354642774D+00
 D   1 1.00       0.000000000000
      0.2854600000D+00  0.1000000000D+01
 F   2 1.00       0.000000000000
      0.1246825000D+01  0.4396849984D+00
      0.4390430000D+00  0.6863389975D+00
 ****
     19 0
 S   4 1.00       0.000000000000
      0.8292177810D+02  0.6162599862D-02
      0.1245241600D+02  0.4714229895D-01
      0.2833052200D+01  0.2323137948D+00
      0.8000097000D+00  0.7907493823D+00
 S   1 1.00       0.000000000000
      0.2585946000D+00  0.1000000000D+01
 S   1 1.00       0.000000000000
      0.8996900000D-01  0.1000000000D+01
 P   2 1.00       0.000000000000
      0.2860673000D+01  0.1809311987D+00
      0.8881900000D+00  0.8702111939D+00
 P   1 1.00       0.000000000000
      0.3037760000D+00  0.1000000000D+01
 D   2 1.00       0.000000000000
      0.1770613000D+01  0.3816542132D+00
      0.5930810000D+00  0.7212254249D+00
 ****
     20 0
 S   4 1.00       0.000000000000
      0.2806943998D+04  0.6387002842D-02
      0.4215775500D+03  0.4873302169D-01
      0.9589574000D+02  0.2372631056D+00
      0.2694455000D+02  0.7859433498D+00
 S   2 1.00       0.000000000000
      0.4999884000D+01 -0.2106800177D+00
      0.5327610000D+00  0.1077681091D+01
 S   1 1.00       0.000000000000
      0.8571378000D+01  0.1000000000D+01
 S   1 1.00       0.000000000000
      0.2871636000D+01  0.1000000000D+01
 S   1 1.00       0.000000000000
      0.2075120000D+00  0.1000000000D+01
 S   1 1.00       0.000000000000
      0.8683400000D-01  0.1000000000D+01
 P   3 1.00       0.000000000000
      0.1868188500D+02  0.3947198053D-01
      0.4125037000D+01  0.2443888795D+00
      0.1197979000D+01  0.8152185980D+00
 P   1 1.00       0.000000000000
      0.1301638000D+02  0.1000000000D+01
 P   1 1.00       0.000000000000
      0.3821590000D+00  0.1000000000D+01
 P   1 1.00       0.000000000000
      0.1206890000D+00  0.1000000000D+01
 D   2 1.00       0.000000000000
      0.3014849000D+01  0.1119839973D+00
      0.8820640000D+00  0.9354642774D+00
 D   1 1.00       0.000000000000
      0.2854600000D+00  0.1000000000D+01
 F   2 1.00       0.000000000000
      0.1246825000D+01  0.4396849984D+00
      0.4390430000D+00  0.6863389975D+00
 ****
     21 0
 S   4 1.00       0.000000000000
      0.2806943998D+04  0.6387002842D-02
      0.4215775500D+03  0.4873302169D-01
      0.9589574000D+02  0.2372631056D+00
      0.2694455000D+02  0.7859433498D+00
 S   2 1.00       0.000000000000
      0.4999884000D+01 -0.2106800177D+00
      0.5327610000D+00  0.1077681091D+01
 S   1 1.00       0.000000000000
      0.8571378000D+01  0.1000000000D+01
 S   1 1.00       0.000000000000
      0.2871636000D+01  0.1000000000D+01
 S   1 1.00       0.000000000000
      0.2075120000D+00  0.1000000000D+01
 S   1 1.00       0.000000000000
      0.8683400000D-01  0.1000000000D+01
 P   3 1.00       0.000000000000
      0.1868188500D+02  0.3947198053D-01
      0.4125037000D+01  0.2443888795D+00
      0.1197979000D+01  0.8152185980D+00
 P   1 1.00       0.000000000000
      0.1301638000D+02  0.1000000000D+01
 P   1 1.00       0.000000000000
      0.3821590000D+00  0.1000000000D+01
 P   1 1.00       0.000000000000
      0.1206890000D+00  0.1000000000D+01
 D   2 1.00       0.000000000000
      0.3014849000D+01  0.1119839973D+00
      0.8820640000D+00  0.9354642774D+00
 D   1 1.00       0.000000000000
      0.2854600000D+00  0.1000000000D+01
 F   2 1.00       0.000000000000
      0.1246825000D+01  0.4396849984D+00
      0.4390430000D+00  0.6863389975D+00
 ****
     22 0
 S   4 1.00       0.000000000000
      0.6459822924D+04  0.6296002313D-02
      0.9701622170D+03  0.4808601766D-01
      0.2206970470D+03  0.2352300864D+00
      0.6211484900D+02  0.7879412894D+00
 S   2 1.00       0.000000000000
      0.1282231200D+02 -0.2133720751D+00
      0.1394073000D+01  0.1079740380D+01
 S   1 1.00       0.000000000000
      0.1990145100D+02  0.1000000000D+01
 S   1 1.00       0.000000000000
      0.6712931000D+01  0.1000000000D+01
 S   1 1.00       0.000000000000
      0.5383380000D+00  0.1000000000D+01
 S   1 1.00       0.000000000000
      0.2164940000D+00  0.1000000000D+01
 P   3 1.00       0.000000000000
      0.4384268100D+02  0.4194499480D-01
      0.9915951000D+01  0.2628429674D+00
      0.2927972000D+01  0.7975969010D+00
 P   1 1.00       0.000000000000
      0.3066490600D+02  0.1000000000D+01
 P   1 1.00       0.000000000000
      0.9124430000D+00  0.1000000000D+01
 P   1 1.00       0.000000000000
      0.2668950000D+00  0.1000000000D+01
 D   2 1.00       0.000000000000
      0.7720164000D+01  0.1480828983D+00
      0.2308899000D+01  0.9111975895D+00
 D   1 1.00       0.000000000000
      0.7618760000D+00  0.1000000000D+01
 F   2 1.00       0.000000000000
      0.3150592000D+01  0.4253502188D+00
      0.1012297000D+01  0.7163584317D+00
 ****
     23 0
 S   4 1.00       0.000000000000
      0.6459822924D+04  0.6296002313D-02
      0.9701622170D+03  0.4808601766D-01
      0.2206970470D+03  0.2352300864D+00
      0.6211484900D+02  0.7879412894D+00
 S   2 1.00       0.000000000000
      0.1282231200D+02 -0.2133720751D+00
      0.1394073000D+01  0.1079740380D+01
 S   1 1.00       0.000000000000
      0.1990145100D+02  0.1000000000D+01
 S   1 1.00       0.000000000000
      0.6712931000D+01  0.1000000000D+01
 S   1 1.00       0.000000000000
      0.5383380000D+00  0.1000000000D+01
 S   1 1.00       0.000000000000
      0.2164940000D+00  0.1000000000D+01
 P   3 1.00       0.000000000000
      0.4384268100D+02  0.4194499480D-01
      0.9915951000D+01  0.2628429674D+00
      0.2927972000D+01  0.7975969010D+00
 P   1 1.00       0.000000000000
      0.3066490600D+02  0.1000000000D+01
 P   1 1.00       0.000000000000
      0.9124430000D+00  0.1000000000D+01
 P   1 1.00       0.000000000000
      0.2668950000D+00  0.1000000000D+01
 D   2 1.00       0.000000000000
      0.7720164000D+01  0.1480828983D+00
      0.2308899000D+01  0.9111975895D+00
 D   1 1.00       0.000000000000
      0.7618760000D+00  0.1000000000D+01
 F   2 1.00       0.000000000000
      0.3150592000D+01  0.4253502188D+00
      0.1012297000D+01  0.7163584317D+00
 ****
     24 0
 S   4 1.00       0.000000000000
      0.8292177810D+02  0.6162599862D-02
      0.1245241600D+02  0.4714229895D-01
      0.2833052200D+01  0.2323137948D+00
      0.8000097000D+00  0.7907493823D+00
 S   1 1.00       0.000000000000
      0.2585946000D+00  0.1000000000D+01
 S   1 1.00       0.000000000000
      0.8996900000D-01  0.1000000000D+01
 P   2 1.00       0.000000000000
      0.2860673000D+01  0.1809311987D+00
      0.8881900000D+00  0.8702111939D+00
 P   1 1.00       0.000000000000
      0.3037760000D+00  0.1000000000D+01
 D   2 1.00       0.000000000000
      0.1770613000D+01  0.3816542132D+00
      0.5930810000D+00  0.7212254249D+00
 ****
     25 0
 S   4 1.00       0.000000000000
      0.2806943998D+04  0.6387002842D-02
      0.4215775500D+03  0.4873302169D-01
      0.9589574000D+02  0.2372631056D+00
      0.2694455000D+02  0.7859433498D+00
 S   2 1.00       0.000000000000
      0.4999884000D+01 -0.2106800177D+00
      0.5327610000D+00  0.1077681091D+01
 S   1 1.00       0.000000000000
      0.8571378000D+01  0.1000000000D+01
 S   1 1.00       0.000000000000
      0.2871636000D+01  0.1000000000D+01
 S   1 1.00       0.000000000000
      0.2075120000D+00  0.1000000000D+01
 S   1 1.00       0.000000000000
      0.8683400000D-01  0.1000000000D+01
 P   3 1.00       0.000000000000
      0.1868188500D+02  0.3947198053D-01
      0.4125037000D+01  0.2443888795D+00
      0.1197979000D+01  0.8152185980D+00
 P   1 1.00       0.000000000000
      0.1301638000D+02  0.1000000000D+01
 P   1 1.00       0.000000000000
      0.3821590000D+00  0.1000000000D+01
 P   1 1.00       0.000000000000
      0.1206890000D+00  0.1000000000D+01
 D   2 1.00       0.000000000000
      0.3014849000D+01  0.1119839973D+00
      0.8820640000D+00  0.9354642774D+00
 D   1 1.00       0.000000000000
      0.2854600000D+00  0.1000000000D+01
 F   2 1.00       0.000000000000
      0.1246825000D+01  0.4396849984D+00
      0.4390430000D+00  0.6863389975D+00
 ****
     26 0
 S   4 1.00       0.000000000000
      0.8292177810D+02  0.6162599862D-02
      0.1245241600D+02  0.4714229895D-01
      0.2833052200D+01  0.2323137948D+00
      0.8000097000D+00  0.7907493823D+00
 S   1 1.00       0.000000000000
      0.2585946000D+00  0.1000000000D+01
 S   1 1.00       0.000000000000
      0.8996900000D-01  0.1000000000D+01
 P   2 1.00       0.000000000000
      0.2860673000D+01  0.1809311987D+00
      0.8881900000D+00  0.8702111939D+00
 P   1 1.00       0.000000000000
      0.3037760000D+00  0.1000000000D+01
 D   2 1.00       0.000000000000
      0.1770613000D+01  0.3816542132D+00
      0.5930810000D+00  0.7212254249D+00
 ****
     27 0
 S   4 1.00       0.000000000000
      0.8292177810D+02  0.6162599862D-02
      0.1245241600D+02  0.4714229895D-01
      0.2833052200D+01  0.2323137948D+00
      0.8000097000D+00  0.7907493823D+00
 S   1 1.00       0.000000000000
      0.2585946000D+00  0.1000000000D+01
 S   1 1.00       0.000000000000
      0.8996900000D-01  0.1000000000D+01
 P   2 1.00       0.000000000000
      0.2860673000D+01  0.1809311987D+00
      0.8881900000D+00  0.8702111939D+00
 P   1 1.00       0.000000000000
      0.3037760000D+00  0.1000000000D+01
 D   2 1.00       0.000000000000
      0.1770613000D+01  0.3816542132D+00
      0.5930810000D+00  0.7212254249D+00
 ****
     28 0
 S   4 1.00       0.000000000000
      0.2806943998D+04  0.6387002842D-02
      0.4215775500D+03  0.4873302169D-01
      0.9589574000D+02  0.2372631056D+00
      0.2694455000D+02  0.7859433498D+00
 S   2 1.00       0.000000000000
      0.4999884000D+01 -0.2106800177D+00
      0.5327610000D+00  0.1077681091D+01
 S   1 1.00       0.000000000000
      0.8571378000D+01  0.1000000000D+01
 S   1 1.00       0.000000000000
      0.2871636000D+01  0.1000000000D+01
 S   1 1.00       0.000000000000
      0.2075120000D+00  0.1000000000D+01
 S   1 1.00       0.000000000000
      0.8683400000D-01  0.1000000000D+01
 P   3 1.00       0.000000000000
      0.1868188500D+02  0.3947198053D-01
      0.4125037000D+01  0.2443888795D+00
      0.1197979000D+01  0.8152185980D+00
 P   1 1.00       0.000000000000
      0.1301638000D+02  0.1000000000D+01
 P   1 1.00       0.000000000000
      0.3821590000D+00  0.1000000000D+01
 P   1 1.00       0.000000000000
      0.1206890000D+00  0.1000000000D+01
 D   2 1.00       0.000000000000
      0.3014849000D+01  0.1119839973D+00
      0.8820640000D+00  0.9354642774D+00
 D   1 1.00       0.000000000000
      0.2854600000D+00  0.1000000000D+01
 F   2 1.00       0.000000000000
      0.1246825000D+01  0.4396849984D+00
      0.4390430000D+00  0.6863389975D+00
 ****
     29 0
 S   4 1.00       0.000000000000
      0.8292177810D+02  0.6162599862D-02
      0.1245241600D+02  0.4714229895D-01
      0.2833052200D+01  0.2323137948D+00
      0.8000097000D+00  0.7907493823D+00
 S   1 1.00       0.000000000000
      0.2585946000D+00  0.1000000000D+01
 S   1 1.00       0.000000000000
      0.8996900000D-01  0.1000000000D+01
 P   2 1.00       0.000000000000
      0.2860673000D+01  0.1809311987D+00
      0.8881900000D+00  0.8702111939D+00
 P   1 1.00       0.000000000000
      0.3037760000D+00  0.1000000000D+01
 D   2 1.00       0.000000000000
      0.1770613000D+01  0.3816542132D+00
      0.5930810000D+00  0.7212254249D+00
 ****
     30 0
 S   4 1.00       0.000000000000
      0.8292177810D+02  0.6162599862D-02
      0.1245241600D+02  0.4714229895D-01
      0.2833052200D+01  0.2323137948D+00
      0.8000097000D+00  0.7907493823D+00
 S   1 1.00       0.000000000000
      0.2585946000D+00  0.1000000000D+01
 S   1 1.00       0.000000000000
      0.8996900000D-01  0.1000000000D+01
 P   2 1.00       0.000000000000
      0.2860673000D+01  0.1809311987D+00
      0.8881900000D+00  0.8702111939D+00
 P   1 1.00       0.000000000000
      0.3037760000D+00  0.1000000000D+01
 D   2 1.00       0.000000000000
      0.1770613000D+01  0.3816542132D+00
      0.5930810000D+00  0.7212254249D+00
 ****
     31 0
 S   4 1.00       0.000000000000
      0.2806943998D+04  0.6387002842D-02
      0.4215775500D+03  0.4873302169D-01
      0.9589574000D+02  0.2372631056D+00
      0.2694455000D+02  0.7859433498D+00
 S   2 1.00       0.000000000000
      0.4999884000D+01 -0.2106800177D+00
      0.5327610000D+00  0.1077681091D+01
 S   1 1.00       0.000000000000
      0.8571378000D+01  0.1000000000D+01
 S   1 1.00       0.000000000000
      0.2871636000D+01  0.1000000000D+01
 S   1 1.00       0.000000000000
      0.2075120000D+00  0.1000000000D+01
 S   1 1.00       0.000000000000
      0.8683400000D-01  0.1000000000D+01
 P   3 1.00       0.000000000000
      0.1868188500D+02  0.3947198053D-01
      0.4125037000D+01  0.2443888795D+00
      0.1197979000D+01  0.8152185980D+00
 P   1 1.00       0.000000000000
      0.1301638000D+02  0.1000000000D+01
 P   1 1.00       0.000000000000
      0.3821590000D+00  0.1000000000D+01
 P   1 1.00       0.000000000000
      0.1206890000D+00  0.1000000000D+01
 D   2 1.00       0.000000000000
      0.3014849000D+01  0.1119839973D+00
      0.8820640000D+00  0.9354642774D+00
 D   1 1.00       0.000000000000
      0.2854600000D+00  0.1000000000D+01
 F   2 1.00       0.000000000000
      0.1246825000D+01  0.4396849984D+00
      0.4390430000D+00  0.6863389975D+00
 ****
     32 0
 S   4 1.00       0.000000000000
      0.2806943998D+04  0.6387002842D-02
      0.4215775500D+03  0.4873302169D-01
      0.9589574000D+02  0.2372631056D+00
      0.2694455000D+02  0.7859433498D+00
 S   2 1.00       0.000000000000
      0.4999884000D+01 -0.2106800177D+00
      0.5327610000D+00  0.1077681091D+01
 S   1 1.00       0.000000000000
      0.8571378000D+01  0.1000000000D+01
 S   1 1.00       0.000000000000
      0.2871636000D+01  0.1000000000D+01
 S   1 1.00       0.000000000000
      0.2075120000D+00  0.1000000000D+01
 S   1 1.00       0.000000000000
      0.8683400000D-01  0.1000000000D+01
 P   3 1.00       0.000000000000
      0.1868188500D+02  0.3947198053D-01
      0.4125037000D+01  0.2443888795D+00
      0.1197979000D+01  0.8152185980D+00
 P   1 1.00       0.000000000000
      0.1301638000D+02  0.1000000000D+01
 P   1 1.00       0.000000000000
      0.3821590000D+00  0.1000000000D+01
 P   1 1.00       0.000000000000
      0.1206890000D+00  0.1000000000D+01
 D   2 1.00       0.000000000000
      0.3014849000D+01  0.1119839973D+00
      0.8820640000D+00  0.9354642774D+00
 D   1 1.00       0.000000000000
      0.2854600000D+00  0.1000000000D+01
 F   2 1.00       0.000000000000
      0.1246825000D+01  0.4396849984D+00
      0.4390430000D+00  0.6863389975D+00
 ****
     33 0
 S   4 1.00       0.000000000000
      0.2806943998D+04  0.6387002842D-02
      0.4215775500D+03  0.4873302169D-01
      0.9589574000D+02  0.2372631056D+00
      0.2694455000D+02  0.7859433498D+00
 S   2 1.00       0.000000000000
      0.4999884000D+01 -0.2106800177D+00
      0.5327610000D+00  0.1077681091D+01
 S   1 1.00       0.000000000000
      0.8571378000D+01  0.1000000000D+01
 S   1 1.00       0.000000000000
      0.2871636000D+01  0.1000000000D+01
 S   1 1.00       0.000000000000
      0.2075120000D+00  0.1000000000D+01
 S   1 1.00       0.000000000000
      0.8683400000D-01  0.1000000000D+01
 P   3 1.00       0.000000000000
      0.1868188500D+02  0.3947198053D-01
      0.4125037000D+01  0.2443888795D+00
      0.1197979000D+01  0.8152185980D+00
 P   1 1.00       0.000000000000
      0.1301638000D+02  0.1000000000D+01
 P   1 1.00       0.000000000000
      0.3821590000D+00  0.1000000000D+01
 P   1 1.00       0.000000000000
      0.1206890000D+00  0.1000000000D+01
 D   2 1.00       0.000000000000
      0.3014849000D+01  0.1119839973D+00
      0.8820640000D+00  0.9354642774D+00
 D   1 1.00       0.000000000000
      0.2854600000D+00  0.1000000000D+01
 F   2 1.00       0.000000000000
      0.1246825000D+01  0.4396849984D+00
      0.4390430000D+00  0.6863389975D+00
 ****
     34 0
 S   4 1.00       0.000000000000
      0.2806943998D+04  0.6387002842D-02
      0.4215775500D+03  0.4873302169D-01
      0.9589574000D+02  0.2372631056D+00
      0.2694455000D+02  0.7859433498D+00
 S   2 1.00       0.000000000000
      0.4999884000D+01 -0.2106800177D+00
      0.5327610000D+00  0.1077681091D+01
 S   1 1.00       0.000000000000
      0.8571378000D+01  0.1000000000D+01
 S   1 1.00       0.000000000000
      0.2871636000D+01  0.1000000000D+01
 S   1 1.00       0.000000000000
      0.2075120000D+00  0.1000000000D+01
 S   1 1.00       0.000000000000
      0.8683400000D-01  0.1000000000D+01
 P   3 1.00       0.000000000000
      0.1868188500D+02  0.3947198053D-01
      0.4125037000D+01  0.2443888795D+00
      0.1197979000D+01  0.8152185980D+00
 P   1 1.00       0.000000000000
      0.1301638000D+02  0.1000000000D+01
 P   1 1.00       0.000000000000
      0.3821590000D+00  0.1000000000D+01
 P   1 1.00       0.000000000000
      0.1206890000D+00  0.1000000000D+01
 D   2 1.00       0.000000000000
      0.3014849000D+01  0.1119839973D+00
      0.8820640000D+00  0.9354642774D+00
 D   1 1.00       0.000000000000
      0.2854600000D+00  0.1000000000D+01
 F   2 1.00       0.000000000000
      0.1246825000D+01  0.4396849984D+00
      0.4390430000D+00  0.6863389975D+00
 ****
     35 0
 S   4 1.00       0.000000000000
      0.2806943998D+04  0.6387002842D-02
      0.4215775500D+03  0.4873302169D-01
      0.9589574000D+02  0.2372631056D+00
      0.2694455000D+02  0.7859433498D+00
 S   2 1.00       0.000000000000
      0.4999884000D+01 -0.2106800177D+00
      0.5327610000D+00  0.1077681091D+01
 S   1 1.00       0.000000000000
      0.8571378000D+01  0.1000000000D+01
 S   1 1.00       0.000000000000
      0.2871636000D+01  0.1000000000D+01
 S   1 1.00       0.000000000000
      0.2075120000D+00  0.1000000000D+01
 S   1 1.00       0.000000000000
      0.8683400000D-01  0.1000000000D+01
 P   3 1.00       0.000000000000
      0.1868188500D+02  0.3947198053D-01
      0.4125037000D+01  0.2443888795D+00
      0.1197979000D+01  0.8152185980D+00
 P   1 1.00       0.000000000000
      0.1301638000D+02  0.1000000000D+01
 P   1 1.00       0.000000000000
      0.3821590000D+00  0.1000000000D+01
 P   1 1.00       0.000000000000
      0.1206890000D+00  0.1000000000D+01
 D   2 1.00       0.000000000000
      0.3014849000D+01  0.1119839973D+00
      0.8820640000D+00  0.9354642774D+00
 D   1 1.00       0.000000000000
      0.2854600000D+00  0.1000000000D+01
 F   2 1.00       0.000000000000
      0.1246825000D+01  0.4396849984D+00
      0.4390430000D+00  0.6863389975D+00
 ****
     36 0
 S   4 1.00       0.000000000000
      0.2806943998D+04  0.6387002842D-02
      0.4215775500D+03  0.4873302169D-01
      0.9589574000D+02  0.2372631056D+00
      0.2694455000D+02  0.7859433498D+00
 S   2 1.00       0.000000000000
      0.4999884000D+01 -0.2106800177D+00
      0.5327610000D+00  0.1077681091D+01
 S   1 1.00       0.000000000000
      0.8571378000D+01  0.1000000000D+01
 S   1 1.00       0.000000000000
      0.2871636000D+01  0.1000000000D+01
 S   1 1.00       0.000000000000
      0.2075120000D+00  0.1000000000D+01
 S   1 1.00       0.000000000000
      0.8683400000D-01  0.1000000000D+01
 P   3 1.00       0.000000000000
      0.1868188500D+02  0.3947198053D-01
      0.4125037000D+01  0.2443888795D+00
      0.1197979000D+01  0.8152185980D+00
 P   1 1.00       0.000000000000
      0.1301638000D+02  0.1000000000D+01
 P   1 1.00       0.000000000000
      0.3821590000D+00  0.1000000000D+01
 P   1 1.00       0.000000000000
      0.1206890000D+00  0.1000000000D+01
 D   2 1.00       0.000000000000
      0.3014849000D+01  0.1119839973D+00
      0.8820640000D+00  0.9354642774D+00
 D   1 1.00       0.000000000000
      0.2854600000D+00  0.1000000000D+01
 F   2 1.00       0.000000000000
      0.1246825000D+01  0.4396849984D+00
      0.4390430000D+00  0.6863389975D+00
 ****
     37 0
 S   4 1.00       0.000000000000
      0.2806943998D+04  0.6387002842D-02
      0.4215775500D+03  0.4873302169D-01
      0.9589574000D+02  0.2372631056D+00
      0.2694455000D+02  0.7859433498D+00
 S   2 1.00       0.000000000000
      0.4999884000D+01 -0.2106800177D+00
      0.5327610000D+00  0.1077681091D+01
 S   1 1.00       0.000000000000
      0.8571378000D+01  0.1000000000D+01
 S   1 1.00       0.000000000000
      0.2871636000D+01  0.1000000000D+01
 S   1 1.00       0.000000000000
      0.2075120000D+00  0.1000000000D+01
 S   1 1.00       0.000000000000
      0.8683400000D-01  0.1000000000D+01
 P   3 1.00       0.000000000000
      0.1868188500D+02  0.3947198053D-01
      0.4125037000D+01  0.2443888795D+00
      0.1197979000D+01  0.8152185980D+00
 P   1 1.00       0.000000000000
      0.1301638000D+02  0.1000000000D+01
 P   1 1.00       0.000000000000
      0.3821590000D+00  0.1000000000D+01
 P   1 1.00       0.000000000000
      0.1206890000D+00  0.1000000000D+01
 D   2 1.00       0.000000000000
      0.3014849000D+01  0.1119839973D+00
      0.8820640000D+00  0.9354642774D+00
 D   1 1.00       0.000000000000
      0.2854600000D+00  0.1000000000D+01
 F   2 1.00       0.000000000000
      0.1246825000D+01  0.4396849984D+00
      0.4390430000D+00  0.6863389975D+00
 ****
     38 0
 S   4 1.00       0.000000000000
      0.3856206859D+04  0.6349001676D-02
      0.5791574600D+03  0.4846001279D-01
      0.1317433600D+03  0.2364080624D+00
      0.3704254100D+02  0.7867852077D+00
 S   2 1.00       0.000000000000
      0.7206494000D+01 -0.2124200382D+00
      0.7738780000D+00  0.1078670194D+01
 S   1 1.00       0.000000000000
      0.1181973800D+02  0.1000000000D+01
 S   1 1.00       0.000000000000
      0.3970994000D+01  0.1000000000D+01
 S   1 1.00       0.000000000000
      0.3000840000D+00  0.1000000000D+01
 S   1 1.00       0.000000000000
      0.1238360000D+00  0.1000000000D+01
 P   3 1.00       0.000000000000
      0.2660280400D+02  0.3984099232D-01
      0.5942001000D+01  0.2491069520D+00
      0.1740659000D+01  0.8103618438D+00
 P   1 1.00       0.000000000000
      0.1814422200D+02  0.1000000000D+01
 P   1 1.00       0.000000000000
      0.5545280000D+00  0.1000000000D+01
 P   1 1.00       0.000000000000
      0.1723670000D+00  0.1000000000D+01
 D   2 1.00       0.000000000000
      0.4586224000D+01  0.1180460031D+00
      0.1318772000D+01  0.9326950242D+00
 D   1 1.00       0.000000000000
      0.4213840000D+00  0.1000000000D+01
 F   2 1.00       0.000000000000
      0.1826455000D+01  0.4239548993D+00
      0.6221640000D+00  0.7064246988D+00
 ****
     39 0
 S   4 1.00       0.000000000000
[...]
                 1 
      1   0.574995D+05
      2  -0.174982D+03
      3   0.364186D+04
      4  -0.327922D+03
      5  -0.618882D+01
      6  -0.112917D+03
      7  -0.177379D+03
      8   0.318364D+04
      9  -0.290740D+02
     10  -0.627921D+01
     11  -0.547564D+02
     12  -0.314348D+00
     13  -0.345202D+03
     14  -0.580186D+01
     15  -0.598227D+02
     16  -0.922132D+02
     17  -0.364462D+00
     18   0.323907D+01

 ----------------------------------------------------------------------

 Electric dipole moment (input orientation):
 (Debye = 10**-18 statcoulomb cm , SI units = C m)
                  (au)            (Debye)         (10**-30 SI)
   Tot        0.153590D+01      0.390387D+01      0.130219D+02
   x          0.152616D+01      0.387911D+01      0.129393D+02
   y         -0.113980D-01     -0.289708D-01     -0.966360D-01
   z          0.172317D+00      0.437986D+00      0.146096D+01

 Dipole polarizability, Alpha (input orientation).
 (esu units = cm**3 , SI units = C**2 m**2 J**-1)
 Alpha(0;0):
               (au)            (10**-24 esu)      (10**-40 SI)
   iso        0.675674D+03      0.100125D+03      0.111404D+03
   aniso      0.592248D+03      0.877621D+02      0.976486D+02
   xx         0.975079D+03      0.144492D+03      0.160769D+03
   yx        -0.461447D+00     -0.683793D-01     -0.760823D-01
   yy         0.748839D+03      0.110967D+03      0.123467D+03
   zx         0.300477D+01      0.445262D+00      0.495420D+00
   zy         0.273592D+01      0.405422D+00      0.451093D+00
   zz         0.303104D+03      0.449153D+02      0.499751D+02
 Alpha(-w;w) w= 1907.0nm:
                  (au)         (10**-24 esu)      (10**-40 SI)
   iso        0.558915D+03      0.828226D+02      0.921526D+02
   aniso      0.540712D+03      0.801252D+02      0.891514D+02
   xx         0.838945D+03      0.124319D+03      0.138323D+03
   yx        -0.466758D+00     -0.691665D-01     -0.769581D-01
   yy         0.615456D+03      0.912012D+02      0.101475D+03
   zx         0.210411D+01      0.311797D+00      0.346920D+00
   zy         0.212065D+01      0.314248D+00      0.349649D+00
   zz         0.222343D+03      0.329478D+02      0.366594D+02

 First dipole hyperpolarizability, Beta (input orientation).
 ||, _|_  parallel and perpendicular components, (z) with respect to z axis,
 vector components x,y,z.  Values do not include the 1/n! factor of 1/2.
 (esu units = statvolt**-1 cm**4 , SI units = C**3 m**3 J**-2)
 Beta(0;0,0):
               (au)            (10**-30 esu)      (10**-50 SI)
   || (z)    -0.199358D+03     -0.172230D+01     -0.639213D+00
   _|_(z)    -0.664526D+02     -0.574099D+00     -0.213071D+00
   x          0.147691D+06      0.127593D+04      0.473550D+03
   y         -0.475219D+03     -0.410553D+01     -0.152373D+01
   z         -0.996789D+03     -0.861148D+01     -0.319606D+01
   ||         0.295390D+05      0.255194D+03      0.947127D+02
   xxx        0.476162D+05      0.411367D+03      0.152675D+03
   xxy       -0.150330D+03     -0.129873D+01     -0.482011D+00
   yxy        0.175915D+04      0.151977D+02      0.564048D+01
   yyy       -0.775815D+01     -0.670244D-01     -0.248754D-01
   xxz       -0.252197D+03     -0.217878D+01     -0.808633D+00
   yxz       -0.211175D+02     -0.182438D+00     -0.677102D-01
   yyz       -0.687454D+02     -0.593907D+00     -0.220423D+00
   zxz       -0.145013D+03     -0.125280D+01     -0.464965D+00
   zyz       -0.318594D+00     -0.275241D-02     -0.102153D-02
   zzz       -0.113209D+02     -0.978038D-01     -0.362989D-01
 Beta(-w;w,0) w= 1907.0nm:
                  (au)         (10**-30 esu)      (10**-50 SI)
   || (z)    -0.176150D+03     -0.152180D+01     -0.564802D+00
   _|_(z)    -0.443741D+02     -0.383358D+00     -0.142279D+00
   x          0.130882D+06      0.113072D+04      0.419655D+03
   y         -0.427069D+03     -0.368954D+01     -0.136934D+01
   z         -0.880752D+03     -0.760901D+01     -0.282401D+01
   ||         0.261771D+05      0.226150D+03      0.839333D+02
   xxx        0.418466D+05      0.361522D+03      0.134175D+03
   yxx       -0.129911D+03     -0.112233D+01     -0.416542D+00
   yyx        0.165763D+04      0.143206D+02      0.531495D+01
   zxx       -0.250919D+03     -0.216775D+01     -0.804538D+00
   zyx       -0.134420D+02     -0.116129D+00     -0.431000D-01
   zzx       -0.682936D+02     -0.590003D+00     -0.218974D+00
   xxy       -0.129156D+03     -0.111581D+01     -0.414121D+00
   yxy        0.198589D+04      0.171565D+02      0.636747D+01
   yyy       -0.123177D+02     -0.106415D+00     -0.394951D-01
   zxy       -0.126340D+02     -0.109148D+00     -0.405091D-01
   zyy       -0.573223D+02     -0.495220D+00     -0.183796D+00
   zzy       -0.426935D+00     -0.368839D-02     -0.136891D-02
   xxz       -0.217038D+03     -0.187504D+01     -0.695903D+00
   yxz       -0.126405D+02     -0.109204D+00     -0.405302D-01
   yyz       -0.481754D+02     -0.416198D+00     -0.154468D+00
   zxz       -0.109491D+03     -0.945915D+00     -0.351067D+00
   zyz       -0.355089D+00     -0.306769D-02     -0.113854D-02
   zzz        0.314936D+00      0.272080D-02      0.100980D-02
 Beta(-2w;w,w) w= 1907.0nm:
                  (au)         (10**-30 esu)      (10**-50 SI)
   || (z)    -0.232133D+03     -0.200545D+01     -0.744302D+00
   _|_(z)    -0.848264D+02     -0.732834D+00     -0.271984D+00
   x          0.182210D+06      0.157416D+04      0.584232D+03
   y         -0.615608D+03     -0.531837D+01     -0.197386D+01
   z         -0.116066D+04     -0.100272D+02     -0.372151D+01
   ||         0.364430D+05      0.314839D+03      0.116849D+03
   xxx        0.574995D+05      0.496751D+03      0.184364D+03
   yxx       -0.177379D+03     -0.153242D+01     -0.568742D+00
   zxx       -0.345202D+03     -0.298228D+01     -0.110684D+01
   xyx       -0.174982D+03     -0.151170D+01     -0.561054D+00
   yyx        0.318364D+04      0.275042D+02      0.102079D+02
   zyx       -0.580186D+01     -0.501236D-01     -0.186029D-01
   xyy        0.364186D+04      0.314629D+02      0.116771D+02
   yyy       -0.290740D+02     -0.251177D+00     -0.932219D-01
   zyy       -0.598227D+02     -0.516821D+00     -0.191813D+00
   xzx       -0.327922D+03     -0.283299D+01     -0.105144D+01
   yzx       -0.627921D+01     -0.542475D-01     -0.201334D-01
   zzx       -0.922132D+02     -0.796650D+00     -0.295669D+00
   xzy       -0.618882D+01     -0.534666D-01     -0.198436D-01
   yzy       -0.547564D+02     -0.473053D+00     -0.175569D+00
   zzy       -0.364462D+00     -0.314867D-02     -0.116860D-02
   xzz       -0.112917D+03     -0.975513D+00     -0.362052D+00
   yzz       -0.314348D+00     -0.271572D-02     -0.100791D-02
   zzz        0.323907D+01      0.279831D-01      0.103856D-01

 ----------------------------------------------------------------------

 Dipole orientation:
    78          0.25804010          0.00747401          1.88798878
     6         -0.08223650         -0.00147576         -1.97003770
     7          0.30233101         -3.82043386          2.56231175
     7          0.33269920          3.83836896          2.54595304
     6          0.21572801          5.62712924          0.75348706
     6          0.16688773         -5.61496696          0.77694932
     6          0.52490925          4.51390158          5.06263829
     6          0.49803200         -4.48769017          5.08081290
     6          0.63217808         -2.33163025          6.81492339
     6          0.64501232          2.36406265          6.80541218
     6          0.84952999          2.30324048          9.44873256
     6          0.58792808          7.07811641          5.72928715
     6          0.46447256          8.92615318          3.86716669
     6          0.27884521          8.19253118          1.33063027
     6          0.83762544         -2.26106383          9.45790488
     6          0.94580985          0.02349535         10.77807110
     6          0.55878551         -7.04998873          5.75569648
     6          0.42128756         -8.90406438          3.90050798
     1          0.71878077         -7.56120656          7.74139201
     6          0.21866543         -8.17838751          1.36291123
     6          0.54121424          0.01402117          5.56529633
     9          0.93897925         -4.40477116         10.80388089
     9          0.96152877          4.45185218         10.78612214
     1          0.01910940         -4.93797200         -1.16367439
     6          0.01131967        -10.13894870         -0.69140701
     1          0.47708345        -10.89820315          4.42691547
     1          0.06155118          4.94404453         -1.18458274
     6          0.19779776         10.14677510         -0.73866600
     1          0.73203498          7.59531255          7.71461089
     1          0.50579471         10.92194440          4.38814640
     6         -0.36905469         -0.01039897         -4.28934696
     6         -0.73333704         -0.02060582         -6.96847302
     6         -0.97315436          2.24637817         -8.36329892
     6         -0.89498685         -2.29832644         -8.35712703
     6         -1.35774545          2.25119527        -10.96254892
     6         -1.27834067         -2.32333213        -10.95648326
     6         -1.52838517         -0.04154702        -12.35127203
     7         -1.91902804         -0.05167979        -14.92454002
     1          1.10604833          0.02718378         12.83176118
     9         -1.49734957         11.96897157         -0.22284665
     9         -0.41792575          9.13828897         -2.98430450
     9          2.44836984         11.30025083         -1.01979214
     9          0.22659575         -9.12491865         -3.00756974
     9         -2.22492087        -11.34919869         -0.60021231
     9          1.81369554        -11.91629573         -0.46001339
     1         -0.85828857          4.05261722         -7.36707463
     1         -1.53089386          4.06319396        -11.92448377
     1         -1.38746036         -4.14270938        -11.91398377
     1         -0.71717610         -4.09684541         -7.35618887
     6         -2.17536690          2.31348849        -16.28744667
     6         -2.09261052         -2.42792747        -16.28125081
     1         -0.46977817          3.50767836        -16.11967330
     1         -3.79910625          3.44094864        -15.61142632
     1         -2.47445080          1.91775036        -18.29979118
     1         -3.67254015         -3.61160847        -15.59783529
     1         -0.34432654         -3.55909110        -16.11534956
     1         -2.41121586         -2.04828005        -18.29370935

 Electric dipole moment (dipole orientation):
 (Debye = 10**-18 statcoulomb cm , SI units = C m)
                  (au)            (Debye)         (10**-30 SI)
   Tot        0.153590D+01      0.390387D+01      0.130219D+02
   x          0.000000D+00      0.000000D+00      0.000000D+00
   y          0.000000D+00      0.000000D+00      0.000000D+00
   z          0.153590D+01      0.390387D+01      0.130219D+02

 Dipole polarizability, Alpha (dipole orientation).
 (esu units = cm**3 , SI units = C**2 m**2 J**-1)
 Alpha(0;0):
               (au)            (10**-24 esu)      (10**-40 SI)
   iso        0.675674D+03      0.100125D+03      0.111404D+03
   aniso      0.592248D+03      0.877621D+02      0.976486D+02
   xx         0.310882D+03      0.460680D+02      0.512575D+02
   yx         0.667799D+00      0.989576D-01      0.110105D+00
   yy         0.748859D+03      0.110970D+03      0.123470D+03
   zx         0.720145D+02      0.106714D+02      0.118736D+02
   zy         0.992077D+00      0.147011D+00      0.163571D+00
   zz         0.967281D+03      0.143336D+03      0.159483D+03
 Alpha(-w;w) w= 1907.0nm:
                  (au)         (10**-24 esu)      (10**-40 SI)
   iso        0.558915D+03      0.828226D+02      0.921526D+02
   aniso      0.540712D+03      0.801252D+02      0.891514D+02
   xx         0.229630D+03      0.340277D+02      0.378609D+02
   yx         0.893612D+00      0.132420D+00      0.147337D+00
   yy         0.615470D+03      0.912032D+02      0.101477D+03
   zx         0.667142D+02      0.988603D+01      0.109997D+02
   zy         0.936187D+00      0.138729D+00      0.154356D+00
   zz         0.831644D+03      0.123237D+03      0.137120D+03

 First dipole hyperpolarizability, Beta (dipole orientation).
 ||, _|_  parallel and perpendicular components, (z) with respect to z axis,
 vector components x,y,z.  Values do not include the 1/n! factor of 1/2.
 (esu units = statvolt**-1 cm**4 , SI units = C**3 m**3 J**-2)
 Beta(0;0,0):
               (au)            (10**-30 esu)      (10**-50 SI)
   || (z)     0.293292D+05      0.253382D+03      0.940400D+02
   _|_(z)     0.977640D+04      0.844605D+02      0.313467D+02
   x          0.175645D+05      0.151744D+03      0.563181D+02
   y          0.496617D+03      0.429038D+01      0.159233D+01
   z          0.146646D+06      0.126691D+04      0.470200D+03
   ||         0.295390D+05      0.255194D+03      0.947127D+02
   xxx        0.397830D+02      0.343694D+00      0.127559D+00
   xxy        0.956059D+01      0.825961D-01      0.306547D-01
   yxy        0.266112D+03      0.229900D+01      0.853251D+00
   yyy        0.256868D+02      0.221914D+00      0.823611D-01
   xxz        0.511809D+03      0.442163D+01      0.164104D+01
   yxz        0.512082D+02      0.442399D+00      0.164192D+00
   yyz        0.173972D+04      0.150299D+02      0.557819D+01
   zxz        0.554894D+04      0.479385D+02      0.177919D+02
   zyz        0.130291D+03      0.112562D+01      0.417762D+00
   zzz        0.466305D+05      0.402851D+03      0.149514D+03
 Beta(-w;w,0) w= 1907.0nm:
                  (au)         (10**-30 esu)      (10**-50 SI)
   || (z)     0.259913D+05      0.224544D+03      0.833374D+02
   _|_(z)     0.857028D+04      0.740405D+02      0.274794D+02
   x          0.155628D+05      0.134451D+03      0.499001D+02
   y          0.434180D+03      0.375098D+01      0.139214D+01
   z          0.129956D+06      0.112272D+04      0.416687D+03
   ||         0.261771D+05      0.226150D+03      0.839333D+02
   xxx        0.360796D+02      0.311700D+00      0.115684D+00
   yxx        0.757839D+01      0.654714D-01      0.242991D-01
   yyx        0.234170D+03      0.202304D+01      0.750832D+00
   zxx        0.470226D+03      0.406238D+01      0.150771D+01
   zyx        0.421726D+02      0.364339D+00      0.135221D+00
   zzx        0.486738D+04      0.420504D+02      0.156066D+02
   xxy        0.806263D+01      0.696548D-01      0.258517D-01
   yxy        0.280091D+03      0.241977D+01      0.898074D+00
   yyy        0.237868D+02      0.205499D+00      0.762690D-01
   zxy        0.421432D+02      0.364085D+00      0.135126D+00
   zyy        0.196647D+04      0.169888D+02      0.630521D+01
   zzy        0.112277D+03      0.969984D+00      0.360000D+00
   xxz        0.514957D+03      0.444883D+01      0.165114D+01
   yxz        0.403963D+02      0.348993D+00      0.129525D+00
   yyz        0.164132D+04      0.141797D+02      0.526266D+01
   zxz        0.489643D+04      0.423013D+02      0.156997D+02
   zyz        0.113662D+03      0.981950D+00      0.364441D+00
   zzz        0.409755D+05      0.353997D+03      0.131382D+03
 Beta(-2w;w,w) w= 1907.0nm:
                  (au)         (10**-30 esu)      (10**-50 SI)
   || (z)     0.361859D+05      0.312618D+03      0.116025D+03
   _|_(z)     0.122060D+05      0.105451D+03      0.391370D+02
   x          0.216009D+05      0.186615D+03      0.692604D+02
   y          0.583887D+03      0.504433D+01      0.187215D+01
   z          0.180929D+06      0.156309D+04      0.580125D+03
   ||         0.364430D+05      0.314839D+03      0.116849D+03
   xxx        0.577423D+02      0.498849D+00      0.185143D+00
   yxx        0.900656D+01      0.778096D-01      0.288783D-01
   zxx        0.683833D+03      0.590779D+01      0.219262D+01
   xyx        0.946523D+01      0.817722D-01      0.303489D-01
   yyx        0.411928D+03      0.355873D+01      0.132079D+01
   zyx        0.526973D+02      0.455264D+00      0.168967D+00
   xyy        0.468364D+03      0.404630D+01      0.150175D+01
   yyy        0.360204D+02      0.311188D+00      0.115494D+00
   zyy        0.361167D+04      0.312021D+02      0.115803D+02
   xzx        0.706318D+03      0.610204D+01      0.226471D+01
   yzx        0.493432D+02      0.426287D+00      0.158212D+00
   zzx        0.670688D+04      0.579422D+02      0.215047D+02
   xzy        0.488373D+02      0.421916D+00      0.156590D+00
   yzy        0.315693D+04      0.272734D+02      0.101223D+02
   zzy        0.149014D+03      0.128737D+01      0.477794D+00
   xzz        0.672174D+04      0.580706D+02      0.215523D+02
   yzz        0.149860D+03      0.129468D+01      0.480507D+00
   zzz        0.563024D+05      0.486409D+03      0.180526D+03

 ----------------------------------------------------------------------
 1\1\GINC-NEQC29\SP\RB3LYP\Gen\C28H17F8N3Pt1\GUEST\20-May-2023\0\\#p B3
 LYP/gen gfinput pseudo=read Integral(Grid=UltraFine,Acc2E=12) scf=maxc
 ycle=200 Polar=(DCSHG) CPHF=RdFreq scrf=(iefpcm,read,solvent=n,n-DiMet
 hylFormamide)\\Primeira Hiperpolarizabilidade\\0,1\Pt,0,1.008098,-0.00
 2554,-0.023564\C,0,-1.040778,0.006667,-0.073725\N,0,1.351872,-2.030588
 ,-0.021851\N,0,1.371945,2.022246,-0.008714\C,0,0.428756,2.975399,-0.04
 6602\C,0,0.398749,-2.973631,-0.063676\C,0,2.709059,2.370496,0.042286\C
 ,0,2.685437,-2.392871,0.022148\C,0,3.612802,-1.258329,0.063032\C,0,3.6
 25038,1.226484,0.074159\C,0,5.026887,1.184637,0.123314\C,0,3.072337,3.
 724956,0.058798\C,0,2.092345,4.709726,0.020417\C,0,0.74498,4.330839,-0
 .035451\C,0,5.014989,-1.230647,0.112194\C,0,5.723602,-0.026575,0.14265
 8\C,0,3.034924,-3.751151,0.020208\C,0,2.044754,-4.725434,-0.024916\H,0
 ,4.086755,-4.028899,0.051962\C,0,0.700942,-4.332187,-0.06618\C,0,2.958
 548,-0.012537,0.045884\F,0,5.721231,-2.369922,0.130392\F,0,5.744306,2.
 316718,0.152261\H,0,-0.628075,-2.608296,-0.098527\C,0,-0.398457,-5.362
 28,-0.086817\H,0,2.317868,-5.782506,-0.030833\H,0,-0.601877,2.621014,-
 0.083278\C,0,-0.341058,5.372771,-0.108014\H,0,4.126637,3.99134,0.10292
 3\H,0,2.375744,5.7639,0.037457\C,0,-2.277388,0.010047,-0.060642\C,0,-3
 .707803,0.013889,-0.028194\C,0,-4.447523,1.218102,0.023999\C,0,-4.4555
 8,-1.186483,-0.034584\C,0,-5.837091,1.229509,0.071927\C,0,-5.845235,-1
 .190852,0.01257\C,0,-6.585491,0.021157,0.070201\N,0,-7.961809,0.02453,
 0.122795\H,0,6.813007,-0.032126,0.180343\F,0,-0.164121,6.329015,0.8211
 11\F,0,-1.561973,4.845788,0.078463\F,0,-0.351158,5.992134,-1.303574\F,
 0,-1.600001,-4.815854,-0.333542\F,0,-0.487575,-6.010889,1.089708\F,0,-
 0.175967,-6.29735,-1.027787\H,0,-3.910527,2.170366,0.029839\H,0,-6.346
 824,2.1915,0.112978\H,0,-6.361574,-2.1502,0.005956\H,0,-3.925014,-2.14
 1478,-0.075718\C,0,-8.685382,1.280514,0.185956\C,0,-8.693844,-1.228145
 ,0.124189\H,0,-8.491668,1.917746,-0.696229\H,0,-8.422404,1.868759,1.08
 4316\H,0,-9.762669,1.077962,0.222194\H,0,-8.432484,-1.862718,0.990876\
 H,0,-8.506737,-1.821219,-0.789689\H,0,-9.76963,-1.020469,0.17373\\Vers
 ion=EM64L-G09RevD.01\State=1-A\HF=-2160.021403\RMSD=4.378e-09\Dipole=1
 .5261601,-0.011398,0.1723169\Polar=975.0792547,-0.4614467,748.8392435,
 3.0047743,2.7359238,303.1037669\HyperPolar=47616.1567121,-150.3297148,
 1759.152307,-7.7581532,-252.1965759,-21.1174586,-68.7454138,-145.01316
 84,-0.3185944,-11.3209029\Quadrupole=34.1046592,-6.6496777,-27.4549815
 ,-0.1223997,-1.01685,0.7101721\PG=C01 [X(C28H17F8N3Pt1)]\\@


 THE THINKER DIES, BUT HIS THOUGHTS ARE BEYOND THE 
 REACH OF DESTRUCTION.  MEN ARE MORTAL; BUT IDEAS 
 ARE IMMORTAL.
                              -- WALTER LIPPMANN
 Job cpu time:      20 days  4 hours 20 minutes 27.1 seconds.
 File lengths (MBytes):  RWF=   9230 Int=      0 D2E=      0 Chk=    116 Scr=      1
 Normal termination of Gaussian 09 at Sat May 20 14:47:27 2023.
