 Entering Gaussian System, Link 0=g09
 Input=OPT_B3LYP_LANL2TZF_def2SVP_ONL_B3LYP_LANL2TZF_SAPPORODZP2021_IEFPCM.com
 Output=OPT_B3LYP_LANL2TZF_def2SVP_ONL_B3LYP_LANL2TZF_SAPPORODZP2021_IEFPCM.log
 Initial command:
 /home/scr/programs/g09/l1.exe "/home/scr/guest/Gau-27249.inp" -scrdir="/home/scr/guest/"
 Entering Link 1 = /home/scr/programs/g09/l1.exe PID=     27250.
  
 Copyright (c) 1988,1990,1992,1993,1995,1998,2003,2009,2013,
            Gaussian, Inc.  All Rights Reserved.
  
 This is part of the Gaussian(R) 09 program.  It is based on
 the Gaussian(R) 03 system (copyright 2003, Gaussian, Inc.),
 the Gaussian(R) 98 system (copyright 1998, Gaussian, Inc.),
 the Gaussian(R) 94 system (copyright 1995, Gaussian, Inc.),
 the Gaussian 92(TM) system (copyright 1992, Gaussian, Inc.),
 the Gaussian 90(TM) system (copyright 1990, Gaussian, Inc.),
 the Gaussian 88(TM) system (copyright 1988, Gaussian, Inc.),
 the Gaussian 86(TM) system (copyright 1986, Carnegie Mellon
 University), and the Gaussian 82(TM) system (copyright 1983,
 Carnegie Mellon University). Gaussian is a federally registered
 trademark of Gaussian, Inc.
  
 This software contains proprietary and confidential information,
 including trade secrets, belonging to Gaussian, Inc.
  
 This software is provided under written license and may be
 used, copied, transmitted, or stored only in accord with that
 written license.
  
 The following legend is applicable only to US Government
 contracts under FAR:
  
                    RESTRICTED RIGHTS LEGEND
  
 Use, reproduction and disclosure by the US Government is
 subject to restrictions as set forth in subparagraphs (a)
 and (c) of the Commercial Computer Software - Restricted
 Rights clause in FAR 52.227-19.
  
 Gaussian, Inc.
 340 Quinnipiac St., Bldg. 40, Wallingford CT 06492
  
  
 ---------------------------------------------------------------
 Warning -- This program may not be used in any manner that
 competes with the business of Gaussian, Inc. or will provide
 assistance to any competitor of Gaussian, Inc.  The licensee
 of this program is prohibited from giving any competitor of
 Gaussian, Inc. access to this program.  By using this program,
 the user acknowledges that Gaussian, Inc. is engaged in the
 business of creating and licensing software in the field of
 computational chemistry and represents and warrants to the
 licensee that it is not a competitor of Gaussian, Inc. and that
 it will not use this program in any manner prohibited above.
 ---------------------------------------------------------------
  

 Cite this work as:
 Gaussian 09, Revision D.01,
 M. J. Frisch, G. W. Trucks, H. B. Schlegel, G. E. Scuseria, 
 M. A. Robb, J. R. Cheeseman, G. Scalmani, V. Barone, B. Mennucci, 
 G. A. Petersson, H. Nakatsuji, M. Caricato, X. Li, H. P. Hratchian, 
 A. F. Izmaylov, J. Bloino, G. Zheng, J. L. Sonnenberg, M. Hada, 
 M. Ehara, K. Toyota, R. Fukuda, J. Hasegawa, M. Ishida, T. Nakajima, 
 Y. Honda, O. Kitao, H. Nakai, T. Vreven, J. A. Montgomery, Jr., 
 J. E. Peralta, F. Ogliaro, M. Bearpark, J. J. Heyd, E. Brothers, 
 K. N. Kudin, V. N. Staroverov, T. Keith, R. Kobayashi, J. Normand, 
 K. Raghavachari, A. Rendell, J. C. Burant, S. S. Iyengar, J. Tomasi, 
 M. Cossi, N. Rega, J. M. Millam, M. Klene, J. E. Knox, J. B. Cross, 
 V. Bakken, C. Adamo, J. Jaramillo, R. Gomperts, R. E. Stratmann, 
 O. Yazyev, A. J. Austin, R. Cammi, C. Pomelli, J. W. Ochterski, 
 R. L. Martin, K. Morokuma, V. G. Zakrzewski, G. A. Voth, 
 P. Salvador, J. J. Dannenberg, S. Dapprich, A. D. Daniels, 
 O. Farkas, J. B. Foresman, J. V. Ortiz, J. Cioslowski, 
 and D. J. Fox, Gaussian, Inc., Wallingford CT, 2013.
 
 ******************************************
 Gaussian 09:  EM64L-G09RevD.01 24-Apr-2013
                19-May-2023 
 ******************************************
 %chk=OPT_B3LYP_LANL2TZF_def2SVP_ONL_B3LYP_LANL2TZF_SAPPORODZP2012_IEFPCM.chk
 %mem=100Gb
 %nproc=32
 Will use up to   32 processors via shared memory.
 ----------------------------------------------------------------------
 #p B3LYP/gen gfinput pseudo=read Integral(Grid=UltraFine,Acc2E=12) scf
 =maxcycle=200 Polar=(DCSHG) CPHF=RdFreq scrf=(iefpcm,read,solvent=n,n-
 DiMethylFormamide)
 ----------------------------------------------------------------------
 1/38=1,40=2,83=1/1;
 2/12=2,17=6,18=5,40=1/2;
 3/5=7,11=2,16=1,17=8,24=10,25=1,30=1,70=2203,72=148,74=-5,75=-5/1,2,3;
 4//1;
 5/5=2,7=200,38=5,53=148,87=12,98=1/2;
 8/6=4,10=90,11=11,87=12/1;
 10/6=20001,13=10,72=3,87=12/2;
 6/7=2,8=2,9=2,10=2,28=1/1;
 99/5=1,9=1/99;
 Leave Link    1 at Fri May 19 22:26:36 2023, MaxMem= 13421772800 cpu:        13.8
 (Enter /home/scr/programs/g09/l101.exe)
 ------------------------------
 Primeira Hiperpolarizabilidade
 ------------------------------
 Symbolic Z-matrix:
 Charge =  0 Multiplicity = 1
 Pt                    1.0081   -0.00255  -0.02356 
 C                    -1.04078   0.00667  -0.07373 
 N                     1.35187  -2.03059  -0.02185 
 N                     1.37195   2.02225  -0.00871 
 C                     0.42876   2.9754   -0.0466 
 C                     0.39875  -2.97363  -0.06368 
 C                     2.70906   2.3705    0.04229 
 C                     2.68544  -2.39287   0.02215 
 C                     3.6128   -1.25833   0.06303 
 C                     3.62504   1.22648   0.07416 
 C                     5.02689   1.18464   0.12331 
 C                     3.07234   3.72496   0.0588 
 C                     2.09234   4.70973   0.02042 
 C                     0.74498   4.33084  -0.03545 
 C                     5.01499  -1.23065   0.11219 
 C                     5.7236   -0.02658   0.14266 
 C                     3.03492  -3.75115   0.02021 
 C                     2.04475  -4.72543  -0.02492 
 H                     4.08676  -4.0289    0.05196 
 C                     0.70094  -4.33219  -0.06618 
 C                     2.95855  -0.01254   0.04588 
 F                     5.72123  -2.36992   0.13039 
 F                     5.74431   2.31672   0.15226 
 H                    -0.62808  -2.6083   -0.09853 
 C                    -0.39846  -5.36228  -0.08682 
 H                     2.31787  -5.78251  -0.03083 
 H                    -0.60188   2.62101  -0.08328 
 C                    -0.34106   5.37277  -0.10801 
 H                     4.12664   3.99134   0.10292 
 H                     2.37574   5.7639    0.03746 
 C                    -2.27739   0.01005  -0.06064 
 C                    -3.7078    0.01389  -0.02819 
 C                    -4.44752   1.2181    0.024 
 C                    -4.45558  -1.18648  -0.03458 
 C                    -5.83709   1.22951   0.07193 
 C                    -5.84524  -1.19085   0.01257 
 C                    -6.58549   0.02116   0.0702 
 N                    -7.96181   0.02453   0.1228 
 H                     6.81301  -0.03213   0.18034 
 F                    -0.16412   6.32902   0.82111 
 F                    -1.56197   4.84579   0.07846 
 F                    -0.35116   5.99213  -1.30357 
 F                    -1.6      -4.81585  -0.33354 
 F                    -0.48758  -6.01089   1.08971 
 F                    -0.17597  -6.29735  -1.02779 
 H                    -3.91053   2.17037   0.02984 
 H                    -6.34682   2.1915    0.11298 
 H                    -6.36157  -2.1502    0.00596 
 H                    -3.92501  -2.14148  -0.07572 
 C                    -8.68538   1.28051   0.18596 
 C                    -8.69384  -1.22815   0.12419 
 H                    -8.49167   1.91775  -0.69623 
 H                    -8.4224    1.86876   1.08432 
 H                    -9.76267   1.07796   0.22219 
 H                    -8.43248  -1.86272   0.99088 
 H                    -8.50674  -1.82122  -0.78969 
 H                    -9.76963  -1.02047   0.17373 
 
 NAtoms=     57 NQM=       57 NQMF=       0 NMMI=      0 NMMIF=      0
                NMic=       0 NMicF=      0.
                    Isotopes and Nuclear Properties:
 (Nuclear quadrupole moments (NQMom) in fm**2, nuclear magnetic moments (NMagM)
  in nuclear magnetons)

  Atom         1           2           3           4           5           6           7           8           9          10
 IAtWgt=         195          12          14          14          12          12          12          12          12          12
 AtmWgt= 194.9648000  12.0000000  14.0030740  14.0030740  12.0000000  12.0000000  12.0000000  12.0000000  12.0000000  12.0000000
 NucSpn=           1           0           2           2           0           0           0           0           0           0
 AtZEff=   0.0000000   0.0000000   0.0000000   0.0000000   0.0000000   0.0000000   0.0000000   0.0000000   0.0000000   0.0000000
 NQMom=    0.0000000   0.0000000   2.0440000   2.0440000   0.0000000   0.0000000   0.0000000   0.0000000   0.0000000   0.0000000
 NMagM=    0.6095000   0.0000000   0.4037610   0.4037610   0.0000000   0.0000000   0.0000000   0.0000000   0.0000000   0.0000000
 AtZNuc=  78.0000000   6.0000000   7.0000000   7.0000000   6.0000000   6.0000000   6.0000000   6.0000000   6.0000000   6.0000000

  Atom        11          12          13          14          15          16          17          18          19          20
 IAtWgt=          12          12          12          12          12          12          12          12           1          12
 AtmWgt=  12.0000000  12.0000000  12.0000000  12.0000000  12.0000000  12.0000000  12.0000000  12.0000000   1.0078250  12.0000000
 NucSpn=           0           0           0           0           0           0           0           0           1           0
 AtZEff=   0.0000000   0.0000000   0.0000000   0.0000000   0.0000000   0.0000000   0.0000000   0.0000000   0.0000000   0.0000000
 NQMom=    0.0000000   0.0000000   0.0000000   0.0000000   0.0000000   0.0000000   0.0000000   0.0000000   0.0000000   0.0000000
 NMagM=    0.0000000   0.0000000   0.0000000   0.0000000   0.0000000   0.0000000   0.0000000   0.0000000   2.7928460   0.0000000
 AtZNuc=   6.0000000   6.0000000   6.0000000   6.0000000   6.0000000   6.0000000   6.0000000   6.0000000   1.0000000   6.0000000

  Atom        21          22          23          24          25          26          27          28          29          30
 IAtWgt=          12          19          19           1          12           1           1          12           1           1
 AtmWgt=  12.0000000  18.9984033  18.9984033   1.0078250  12.0000000   1.0078250   1.0078250  12.0000000   1.0078250   1.0078250
 NucSpn=           0           1           1           1           0           1           1           0           1           1
 AtZEff=   0.0000000   0.0000000   0.0000000   0.0000000   0.0000000   0.0000000   0.0000000   0.0000000   0.0000000   0.0000000
 NQMom=    0.0000000   0.0000000   0.0000000   0.0000000   0.0000000   0.0000000   0.0000000   0.0000000   0.0000000   0.0000000
 NMagM=    0.0000000   2.6288670   2.6288670   2.7928460   0.0000000   2.7928460   2.7928460   0.0000000   2.7928460   2.7928460
 AtZNuc=   6.0000000   9.0000000   9.0000000   1.0000000   6.0000000   1.0000000   1.0000000   6.0000000   1.0000000   1.0000000

  Atom        31          32          33          34          35          36          37          38          39          40
 IAtWgt=          12          12          12          12          12          12          12          14           1          19
 AtmWgt=  12.0000000  12.0000000  12.0000000  12.0000000  12.0000000  12.0000000  12.0000000  14.0030740   1.0078250  18.9984033
 NucSpn=           0           0           0           0           0           0           0           2           1           1
 AtZEff=   0.0000000   0.0000000   0.0000000   0.0000000   0.0000000   0.0000000   0.0000000   0.0000000   0.0000000   0.0000000
 NQMom=    0.0000000   0.0000000   0.0000000   0.0000000   0.0000000   0.0000000   0.0000000   2.0440000   0.0000000   0.0000000
 NMagM=    0.0000000   0.0000000   0.0000000   0.0000000   0.0000000   0.0000000   0.0000000   0.4037610   2.7928460   2.6288670
 AtZNuc=   6.0000000   6.0000000   6.0000000   6.0000000   6.0000000   6.0000000   6.0000000   7.0000000   1.0000000   9.0000000

  Atom        41          42          43          44          45          46          47          48          49          50
 IAtWgt=          19          19          19          19          19           1           1           1           1          12
 AtmWgt=  18.9984033  18.9984033  18.9984033  18.9984033  18.9984033   1.0078250   1.0078250   1.0078250   1.0078250  12.0000000
 NucSpn=           1           1           1           1           1           1           1           1           1           0
 AtZEff=   0.0000000   0.0000000   0.0000000   0.0000000   0.0000000   0.0000000   0.0000000   0.0000000   0.0000000   0.0000000
 NQMom=    0.0000000   0.0000000   0.0000000   0.0000000   0.0000000   0.0000000   0.0000000   0.0000000   0.0000000   0.0000000
 NMagM=    2.6288670   2.6288670   2.6288670   2.6288670   2.6288670   2.7928460   2.7928460   2.7928460   2.7928460   0.0000000
 AtZNuc=   9.0000000   9.0000000   9.0000000   9.0000000   9.0000000   1.0000000   1.0000000   1.0000000   1.0000000   6.0000000

  Atom        51          52          53          54          55          56          57
 IAtWgt=          12           1           1           1           1           1           1
 AtmWgt=  12.0000000   1.0078250   1.0078250   1.0078250   1.0078250   1.0078250   1.0078250
 NucSpn=           0           1           1           1           1           1           1
 AtZEff=   0.0000000   0.0000000   0.0000000   0.0000000   0.0000000   0.0000000   0.0000000
 NQMom=    0.0000000   0.0000000   0.0000000   0.0000000   0.0000000   0.0000000   0.0000000
 NMagM=    0.0000000   2.7928460   2.7928460   2.7928460   2.7928460   2.7928460   2.7928460
 AtZNuc=   6.0000000   1.0000000   1.0000000   1.0000000   1.0000000   1.0000000   1.0000000
 Using perturbation frequencies:    0.000000    0.023893
 Leave Link  101 at Fri May 19 22:26:36 2023, MaxMem= 13421772800 cpu:         4.4
 (Enter /home/scr/programs/g09/l202.exe)
 Stoichiometry    C28H17F8N3Pt
 Framework group  C1[X(C28H17F8N3Pt)]
 Deg. of freedom   165
 Full point group                 C1      NOp   1
 Largest Abelian subgroup         C1      NOp   1
 Largest concise Abelian subgroup C1      NOp   1
                         Standard orientation:                         
 ---------------------------------------------------------------------
 Center     Atomic      Atomic             Coordinates (Angstroms)
 Number     Number       Type             X           Y           Z
 ---------------------------------------------------------------------
      1         78           0       -1.008098   -0.002554    0.023564
      2          6           0        1.040778    0.006667    0.073725
      3          7           0       -1.351872   -2.030588    0.021851
      4          7           0       -1.371945    2.022246    0.008714
      5          6           0       -0.428755    2.975399    0.046602
      6          6           0       -0.398749   -2.973631    0.063676
      7          6           0       -2.709059    2.370497   -0.042286
      8          6           0       -2.685437   -2.392870   -0.022148
      9          6           0       -3.612802   -1.258328   -0.063032
     10          6           0       -3.625038    1.226485   -0.074159
     11          6           0       -5.026887    1.184638   -0.123314
     12          6           0       -3.072336    3.724957   -0.058798
     13          6           0       -2.092344    4.709726   -0.020417
     14          6           0       -0.744979    4.330839    0.035451
     15          6           0       -5.014989   -1.230646   -0.112194
     16          6           0       -5.723602   -0.026574   -0.142658
     17          6           0       -3.034925   -3.751150   -0.020208
     18          6           0       -2.044755   -4.725434    0.024916
     19          1           0       -4.086756   -4.028898   -0.051962
     20          6           0       -0.700943   -4.332187    0.066180
     21          6           0       -2.958548   -0.012536   -0.045884
     22          9           0       -5.721231   -2.369921   -0.130392
     23          9           0       -5.744306    2.316719   -0.152261
     24          1           0        0.628075   -2.608296    0.098527
     25          6           0        0.398456   -5.362280    0.086817
     26          1           0       -2.317869   -5.782506    0.030833
     27          1           0        0.601877    2.621014    0.083278
     28          6           0        0.341059    5.372771    0.108014
     29          1           0       -4.126636    3.991341   -0.102923
     30          1           0       -2.375743    5.763900   -0.037457
     31          6           0        2.277388    0.010047    0.060642
     32          6           0        3.707803    0.013889    0.028194
     33          6           0        4.447523    1.218101   -0.023999
     34          6           0        4.455580   -1.186484    0.034584
     35          6           0        5.837091    1.229508   -0.071927
     36          6           0        5.845235   -1.190853   -0.012570
     37          6           0        6.585491    0.021156   -0.070201
     38          7           0        7.961809    0.024529   -0.122795
     39          1           0       -6.813007   -0.032125   -0.180343
     40          9           0        0.164122    6.329015   -0.821111
     41          9           0        1.561974    4.845788   -0.078463
     42          9           0        0.351159    5.992134    1.303574
     43          9           0        1.600000   -4.815854    0.333542
     44          9           0        0.487574   -6.010889   -1.089708
     45          9           0        0.175966   -6.297350    1.027787
     46          1           0        3.910527    2.170366   -0.029839
     47          1           0        6.346824    2.191499   -0.112978
     48          1           0        6.361574   -2.150201   -0.005956
     49          1           0        3.925014   -2.141478    0.075718
     50          6           0        8.685382    1.280513   -0.185956
     51          6           0        8.693844   -1.228146   -0.124189
     52          1           0        8.491668    1.917745    0.696229
     53          1           0        8.422404    1.868758   -1.084316
     54          1           0        9.762669    1.077961   -0.222194
     55          1           0        8.432484   -1.862719   -0.990876
     56          1           0        8.506737   -1.821220    0.789689
     57          1           0        9.769630   -1.020470   -0.173730
 ---------------------------------------------------------------------
 Rotational constants (GHZ):      0.0734786      0.0557567      0.0320899
 Leave Link  202 at Fri May 19 22:26:36 2023, MaxMem= 13421772800 cpu:         1.3
 (Enter /home/scr/programs/g09/l301.exe)
 General basis read from cards:  (5D, 7F)
 Centers:      19     24     26     27     29     30     39     46     47     48
 Centers:      49     52     53     54     55     56     57
 S 3 1.00
     Exponent=  1.3010700300D+01 Coefficients=  3.3485500000D-02
     Exponent=  1.9622571000D+00 Coefficients=  2.3472190000D-01
     Exponent=  4.4453800000D-01 Coefficients=  8.1377030000D-01
 S 1 1.00
     Exponent=  1.2194960000D-01 Coefficients=  1.0000000000D+00
 P 3 1.00
     Exponent=  2.8606730000D+00 Coefficients=  1.2885600000D-01
     Exponent=  8.8819000000D-01 Coefficients=  6.1974880000D-01
     Exponent=  3.0377600000D-01 Coefficients=  3.7311290000D-01
 ****
 Centers:       2      5      6      7      8      9     10     11     12     13
 Centers:      14     15     16     17     18     20     21     25     28     31
 Centers:      32     33     34     35     36     37     50     51
 S 5 1.00
     Exponent=  2.8044309400D+03 Coefficients=  2.7210000000D-03
     Exponent=  4.2120284300D+02 Coefficients=  2.0759000000D-02
     Exponent=  9.5810161000D+01 Coefficients=  1.0106300000D-01
     Exponent=  2.6920191000D+01 Coefficients=  3.3470600000D-01
     Exponent=  8.5644360000D+00 Coefficients=  6.4691300000D-01
 S 1 1.00
     Exponent=  2.8735280000D+00 Coefficients=  1.0000000000D+00
 S 2 1.00
     Exponent=  5.1471340000D+00 Coefficients= -1.5724400000D-01
     Exponent=  4.7603600000D-01 Coefficients=  1.0550390000D+00
 S 1 1.00
     Exponent=  1.4978900000D-01 Coefficients=  1.0000000000D+00
 P 1 1.00
     Exponent=  1.2081400000D+01 Coefficients=  1.0000000000D+00
 P 3 1.00
     Exponent=  9.4396810000D+00 Coefficients=  5.6939000000D-02
     Exponent=  2.0004050000D+00 Coefficients=  3.1332600000D-01
     Exponent=  5.4491600000D-01 Coefficients=  7.6035500000D-01
 P 1 1.00
     Exponent=  1.5146100000D-01 Coefficients=  1.0000000000D+00
 D 2 1.00
     Exponent=  1.2514630000D+00 Coefficients=  3.5720490000D-01
     Exponent=  3.3779400000D-01 Coefficients=  7.7365170000D-01
 ****
 Centers:       3      4     38
 S 5 1.00
     Exponent=  3.8496414480D+03 Coefficients=  2.7050000000D-03
     Exponent=  5.7817032400D+02 Coefficients=  2.0650000000D-02
     Exponent=  1.3151811700D+02 Coefficients=  1.0072500000D-01
     Exponent=  3.6979313000D+01 Coefficients=  3.3507800000D-01
     Exponent=  1.1800324000D+01 Coefficients=  6.4652000000D-01
 S 1 1.00
     Exponent=  3.9716430000D+00 Coefficients=  1.0000000000D+00
 S 2 1.00
     Exponent=  7.4405710000D+00 Coefficients= -1.5582400000D-01
     Exponent=  6.8601900000D-01 Coefficients=  1.0545010000D+00
 S 1 1.00
     Exponent=  2.1208700000D-01 Coefficients=  1.0000000000D+00
 P 1 1.00
     Exponent=  1.6791537000D+01 Coefficients=  1.0000000000D+00
 P 3 1.00
     Exponent=  1.3543802000D+01 Coefficients=  5.8885000000D-02
     Exponent=  2.9154560000D+00 Coefficients=  3.2053500000D-01
     Exponent=  7.9639200000D-01 Coefficients=  7.5305900000D-01
 P 1 1.00
     Exponent=  2.1824500000D-01 Coefficients=  1.0000000000D+00
 D 2 1.00
     Exponent=  1.8733840000D+00 Coefficients=  3.5330600000D-01
     Exponent=  4.9392300000D-01 Coefficients=  7.8005000000D-01
 ****
 Centers:      22     23     40     41     42     43     44     45
 S 5 1.00
     Exponent=  6.4417488120D+03 Coefficients=  2.6830000000D-03
     Exponent=  9.6744965900D+02 Coefficients=  2.0493000000D-02
     Exponent=  2.2007749500D+02 Coefficients=  1.0023000000D-01
     Exponent=  6.1939096000D+01 Coefficients=  3.3553100000D-01
     Exponent=  1.9843254000D+01 Coefficients=  6.4607800000D-01
 S 1 1.00
     Exponent=  6.7083120000D+00 Coefficients=  1.0000000000D+00
 S 2 1.00
     Exponent=  1.3291282000D+01 Coefficients= -1.5364300000D-01
     Exponent=  1.2246910000D+00 Coefficients=  1.0538530000D+00
 S 1 1.00
     Exponent=  3.7094900000D-01 Coefficients=  1.0000000000D+00
 P 1 1.00
     Exponent=  2.8407953000D+01 Coefficients=  1.0000000000D+00
 P 3 1.00
     Exponent=  2.2664161000D+01 Coefficients=  6.4817000000D-02
     Exponent=  4.9749260000D+00 Coefficients=  3.4064200000D-01
     Exponent=  1.3457230000D+00 Coefficients=  7.3462800000D-01
 P 1 1.00
     Exponent=  3.4683100000D-01 Coefficients=  1.0000000000D+00
 D 2 1.00
     Exponent=  3.4958680000D+00 Coefficients=  3.4963710000D-01
     Exponent=  9.1603000000D-01 Coefficients=  7.8373720000D-01
 ****
 Centers:       1
 S 1 1.00
     Exponent=  2.5470000000D+00 Coefficients=  1.0000000000D+00
 S 1 1.00
     Exponent=  1.6140000000D+00 Coefficients=  1.0000000000D+00
 S 1 1.00
     Exponent=  5.1670000000D-01 Coefficients=  1.0000000000D+00
 S 1 1.00
     Exponent=  2.6510000000D-01 Coefficients=  1.0000000000D+00
 S 1 1.00
     Exponent=  5.8000000000D-02 Coefficients=  1.0000000000D+00
 P 1 1.00
     Exponent=  2.9110000000D+00 Coefficients=  1.0000000000D+00
 P 1 1.00
     Exponent=  1.8360000000D+00 Coefficients=  1.0000000000D+00
 P 1 1.00
     Exponent=  5.9820000000D-01 Coefficients=  1.0000000000D+00
 P 1 1.00
     Exponent=  9.9600000000D-02 Coefficients=  1.0000000000D+00
 P 1 1.00
     Exponent=  2.9000000000D-02 Coefficients=  1.0000000000D+00
 D 1 1.00
     Exponent=  1.2430000000D+00 Coefficients=  1.0000000000D+00
 D 1 1.00
     Exponent=  4.2710000000D-01 Coefficients=  1.0000000000D+00
 D 1 1.00
     Exponent=  1.3700000000D-01 Coefficients=  1.0000000000D+00
 F 1 1.00
     Exponent=  9.9300000000D-01 Coefficients=  1.0000000000D+00
 ****
 ======================================================================================================
                                       Pseudopotential Parameters
 ======================================================================================================
  Center     Atomic      Valence      Angular      Power
  Number     Number     Electrons     Momentum     of R      Exponent        Coefficient   SO-Coeffient
 ======================================================================================================
    1         78           18
                                      G and up 
                                                     1      728.9394056       -0.16192680    0.00000000
                                                     2      320.6567800    -1320.28738520    0.00000000
                                                     2       52.8680174     -298.31781350    0.00000000
                                                     2       12.0280128      -87.58370650    0.00000000
                                                     2        3.5238913       -8.14932740    0.00000000
                                      S - G
                                                     0      409.4437358        2.73342180    0.00000000
                                                     1      274.5419231       59.70243290    0.00000000
                                                     2      127.5658570      891.45895500    0.00000000
                                                     2       32.9036631      368.44676560    0.00000000
                                                     2        5.0593880      238.02630900    0.00000000
                                                     2        4.1506556     -107.05564540    0.00000000
                                      P - G
                                                     0      466.1728892        1.88785680    0.00000000
                                                     1      120.7888259       76.01386290    0.00000000
                                                     2       36.4118791      343.55111160    0.00000000
                                                     2        5.6985408      119.49117860    0.00000000
                                      D - G
                                                     0      249.5650763        2.93436780    0.00000000
                                                     1      126.6678585       59.33065710    0.00000000
                                                     2       63.1430586      452.44451940    0.00000000
                                                     2       17.9059470      210.47694790    0.00000000
                                                     2        4.2239373       58.62541120    0.00000000
                                      F - G
                                                     0      121.8158799        3.95342530    0.00000000
                                                     1       60.8757030       53.85551820    0.00000000
                                                     2       31.4767147      247.43051330    0.00000000
                                                     2        9.8811751      127.81879760    0.00000000
                                                     2        2.7319874       15.37720460    0.00000000
    2          6
                                   No pseudopotential on this center.
    3          7
                                   No pseudopotential on this center.
    4          7
                                   No pseudopotential on this center.
    5          6
                                   No pseudopotential on this center.
    6          6
                                   No pseudopotential on this center.
    7          6
                                   No pseudopotential on this center.
    8          6
                                   No pseudopotential on this center.
    9          6
                                   No pseudopotential on this center.
   10          6
                                   No pseudopotential on this center.
   11          6
                                   No pseudopotential on this center.
   12          6
                                   No pseudopotential on this center.
   13          6
                                   No pseudopotential on this center.
   14          6
                                   No pseudopotential on this center.
   15          6
                                   No pseudopotential on this center.
   16          6
                                   No pseudopotential on this center.
   17          6
                                   No pseudopotential on this center.
   18          6
                                   No pseudopotential on this center.
   19          1
                                   No pseudopotential on this center.
   20          6
                                   No pseudopotential on this center.
   21          6
                                   No pseudopotential on this center.
   22          9
                                   No pseudopotential on this center.
   23          9
                                   No pseudopotential on this center.
   24          1
                                   No pseudopotential on this center.
   25          6
                                   No pseudopotential on this center.
   26          1
                                   No pseudopotential on this center.
   27          1
                                   No pseudopotential on this center.
   28          6
                                   No pseudopotential on this center.
   29          1
                                   No pseudopotential on this center.
   30          1
                                   No pseudopotential on this center.
   31          6
                                   No pseudopotential on this center.
   32          6
                                   No pseudopotential on this center.
   33          6
                                   No pseudopotential on this center.
   34          6
                                   No pseudopotential on this center.
   35          6
                                   No pseudopotential on this center.
   36          6
                                   No pseudopotential on this center.
   37          6
                                   No pseudopotential on this center.
   38          7
                                   No pseudopotential on this center.
   39          1
                                   No pseudopotential on this center.
   40          9
                                   No pseudopotential on this center.
   41          9
                                   No pseudopotential on this center.
   42          9
                                   No pseudopotential on this center.
   43          9
                                   No pseudopotential on this center.
   44          9
                                   No pseudopotential on this center.
   45          9
                                   No pseudopotential on this center.
   46          1
                                   No pseudopotential on this center.
   47          1
                                   No pseudopotential on this center.
   48          1
                                   No pseudopotential on this center.
   49          1
                                   No pseudopotential on this center.
   50          6
                                   No pseudopotential on this center.
   51          6
                                   No pseudopotential on this center.
   52          1
                                   No pseudopotential on this center.
   53          1
                                   No pseudopotential on this center.
   54          1
                                   No pseudopotential on this center.
   55          1
                                   No pseudopotential on this center.
   56          1
                                   No pseudopotential on this center.
   57          1
                                   No pseudopotential on this center.
 ======================================================================================================
 Ernie: Thresh=  0.10000D-02 Tol=  0.10000D-05 Strict=F.
 AO basis set in the form of general basis input (Overlap normalization):
      1 0
 S   1 1.00       0.000000000000
      0.2547000000D+01  0.1000000000D+01
 S   1 1.00       0.000000000000
      0.1614000000D+01  0.1000000000D+01
 S   1 1.00       0.000000000000
      0.5167000000D+00  0.1000000000D+01
 S   1 1.00       0.000000000000
      0.2651000000D+00  0.1000000000D+01
 S   1 1.00       0.000000000000
      0.5800000000D-01  0.1000000000D+01
 P   1 1.00       0.000000000000
      0.2911000000D+01  0.1000000000D+01
 P   1 1.00       0.000000000000
      0.1836000000D+01  0.1000000000D+01
 P   1 1.00       0.000000000000
      0.5982000000D+00  0.1000000000D+01
 P   1 1.00       0.000000000000
      0.9960000000D-01  0.1000000000D+01
 P   1 1.00       0.000000000000
      0.2900000000D-01  0.1000000000D+01
 D   1 1.00       0.000000000000
      0.1243000000D+01  0.1000000000D+01
 D   1 1.00       0.000000000000
      0.4271000000D+00  0.1000000000D+01
 D   1 1.00       0.000000000000
      0.1370000000D+00  0.1000000000D+01
 F   1 1.00       0.000000000000
      0.9930000000D+00  0.1000000000D+01
 ****
      2 0
 S   5 1.00       0.000000000000
      0.2804430940D+04  0.2721001118D-02
      0.4212028430D+03  0.2075900853D-01
      0.9581016100D+02  0.1010630415D+00
      0.2692019100D+02  0.3347061376D+00
      0.8564436000D+01  0.6469132659D+00
 S   2 1.00       0.000000000000
      0.5147134000D+01 -0.1572439155D+00
      0.4760360000D+00  0.1055038433D+01
 S   1 1.00       0.000000000000
      0.2873528000D+01  0.1000000000D+01
 S   1 1.00       0.000000000000
      0.1497890000D+00  0.1000000000D+01
 P   3 1.00       0.000000000000
      0.9439681000D+01  0.5693904529D-01
      0.2000405000D+01  0.3133262492D+00
      0.5449160000D+00  0.7603556048D+00
 P   1 1.00       0.000000000000
      0.1208140000D+02  0.1000000000D+01
 P   1 1.00       0.000000000000
      0.1514610000D+00  0.1000000000D+01
 D   2 1.00       0.000000000000
      0.1251463000D+01  0.3572049015D+00
      0.3377940000D+00  0.7736517033D+00
 ****
      3 0
 S   5 1.00       0.000000000000
      0.3849641448D+04  0.2704998987D-02
      0.5781703240D+03  0.2064999226D-01
      0.1315181170D+03  0.1007249623D+00
      0.3697931300D+02  0.3350778745D+00
      0.1180032400D+02  0.6465197578D+00
 S   2 1.00       0.000000000000
      0.7440571000D+01 -0.1558240738D+00
      0.6860190000D+00  0.1054501499D+01
 S   1 1.00       0.000000000000
      0.3971643000D+01  0.1000000000D+01
 S   1 1.00       0.000000000000
      0.2120870000D+00  0.1000000000D+01
 P   3 1.00       0.000000000000
      0.1354380200D+02  0.5888501217D-01
      0.2915456000D+01  0.3205350662D+00
      0.7963920000D+00  0.7530591556D+00
 P   1 1.00       0.000000000000
      0.1679153700D+02  0.1000000000D+01
 P   1 1.00       0.000000000000
      0.2182450000D+00  0.1000000000D+01
 D   2 1.00       0.000000000000
      0.1873384000D+01  0.3533059913D+00
      0.4939230000D+00  0.7800499807D+00
 ****
      4 0
 S   5 1.00       0.000000000000
      0.3849641448D+04  0.2704998987D-02
      0.5781703240D+03  0.2064999226D-01
      0.1315181170D+03  0.1007249623D+00
      0.3697931300D+02  0.3350778745D+00
      0.1180032400D+02  0.6465197578D+00
 S   2 1.00       0.000000000000
      0.7440571000D+01 -0.1558240738D+00
      0.6860190000D+00  0.1054501499D+01
 S   1 1.00       0.000000000000
      0.3971643000D+01  0.1000000000D+01
 S   1 1.00       0.000000000000
      0.2120870000D+00  0.1000000000D+01
 P   3 1.00       0.000000000000
      0.1354380200D+02  0.5888501217D-01
      0.2915456000D+01  0.3205350662D+00
      0.7963920000D+00  0.7530591556D+00
 P   1 1.00       0.000000000000
      0.1679153700D+02  0.1000000000D+01
 P   1 1.00       0.000000000000
      0.2182450000D+00  0.1000000000D+01
 D   2 1.00       0.000000000000
      0.1873384000D+01  0.3533059913D+00
      0.4939230000D+00  0.7800499807D+00
 ****
      5 0
 S   5 1.00       0.000000000000
      0.2804430940D+04  0.2721001118D-02
      0.4212028430D+03  0.2075900853D-01
      0.9581016100D+02  0.1010630415D+00
      0.2692019100D+02  0.3347061376D+00
      0.8564436000D+01  0.6469132659D+00
 S   2 1.00       0.000000000000
      0.5147134000D+01 -0.1572439155D+00
      0.4760360000D+00  0.1055038433D+01
 S   1 1.00       0.000000000000
      0.2873528000D+01  0.1000000000D+01
 S   1 1.00       0.000000000000
      0.1497890000D+00  0.1000000000D+01
 P   3 1.00       0.000000000000
      0.9439681000D+01  0.5693904529D-01
      0.2000405000D+01  0.3133262492D+00
      0.5449160000D+00  0.7603556048D+00
 P   1 1.00       0.000000000000
      0.1208140000D+02  0.1000000000D+01
 P   1 1.00       0.000000000000
      0.1514610000D+00  0.1000000000D+01
 D   2 1.00       0.000000000000
      0.1251463000D+01  0.3572049015D+00
      0.3377940000D+00  0.7736517033D+00
 ****
      6 0
 S   5 1.00       0.000000000000
      0.2804430940D+04  0.2721001118D-02
      0.4212028430D+03  0.2075900853D-01
      0.9581016100D+02  0.1010630415D+00
      0.2692019100D+02  0.3347061376D+00
      0.8564436000D+01  0.6469132659D+00
 S   2 1.00       0.000000000000
      0.5147134000D+01 -0.1572439155D+00
      0.4760360000D+00  0.1055038433D+01
 S   1 1.00       0.000000000000
      0.2873528000D+01  0.1000000000D+01
 S   1 1.00       0.000000000000
      0.1497890000D+00  0.1000000000D+01
 P   3 1.00       0.000000000000
      0.9439681000D+01  0.5693904529D-01
      0.2000405000D+01  0.3133262492D+00
      0.5449160000D+00  0.7603556048D+00
 P   1 1.00       0.000000000000
      0.1208140000D+02  0.1000000000D+01
 P   1 1.00       0.000000000000
      0.1514610000D+00  0.1000000000D+01
 D   2 1.00       0.000000000000
      0.1251463000D+01  0.3572049015D+00
      0.3377940000D+00  0.7736517033D+00
 ****
      7 0
 S   5 1.00       0.000000000000
      0.2804430940D+04  0.2721001118D-02
      0.4212028430D+03  0.2075900853D-01
      0.9581016100D+02  0.1010630415D+00
      0.2692019100D+02  0.3347061376D+00
      0.8564436000D+01  0.6469132659D+00
 S   2 1.00       0.000000000000
      0.5147134000D+01 -0.1572439155D+00
      0.4760360000D+00  0.1055038433D+01
 S   1 1.00       0.000000000000
      0.2873528000D+01  0.1000000000D+01
 S   1 1.00       0.000000000000
      0.1497890000D+00  0.1000000000D+01
 P   3 1.00       0.000000000000
      0.9439681000D+01  0.5693904529D-01
      0.2000405000D+01  0.3133262492D+00
      0.5449160000D+00  0.7603556048D+00
 P   1 1.00       0.000000000000
      0.1208140000D+02  0.1000000000D+01
 P   1 1.00       0.000000000000
      0.1514610000D+00  0.1000000000D+01
 D   2 1.00       0.000000000000
      0.1251463000D+01  0.3572049015D+00
      0.3377940000D+00  0.7736517033D+00
 ****
      8 0
 S   5 1.00       0.000000000000
      0.2804430940D+04  0.2721001118D-02
      0.4212028430D+03  0.2075900853D-01
      0.9581016100D+02  0.1010630415D+00
      0.2692019100D+02  0.3347061376D+00
      0.8564436000D+01  0.6469132659D+00
 S   2 1.00       0.000000000000
      0.5147134000D+01 -0.1572439155D+00
      0.4760360000D+00  0.1055038433D+01
 S   1 1.00       0.000000000000
      0.2873528000D+01  0.1000000000D+01
 S   1 1.00       0.000000000000
      0.1497890000D+00  0.1000000000D+01
 P   3 1.00       0.000000000000
      0.9439681000D+01  0.5693904529D-01
      0.2000405000D+01  0.3133262492D+00
      0.5449160000D+00  0.7603556048D+00
 P   1 1.00       0.000000000000
      0.1208140000D+02  0.1000000000D+01
 P   1 1.00       0.000000000000
      0.1514610000D+00  0.1000000000D+01
 D   2 1.00       0.000000000000
      0.1251463000D+01  0.3572049015D+00
      0.3377940000D+00  0.7736517033D+00
 ****
      9 0
 S   5 1.00       0.000000000000
      0.2804430940D+04  0.2721001118D-02
      0.4212028430D+03  0.2075900853D-01
      0.9581016100D+02  0.1010630415D+00
      0.2692019100D+02  0.3347061376D+00
      0.8564436000D+01  0.6469132659D+00
 S   2 1.00       0.000000000000
      0.5147134000D+01 -0.1572439155D+00
      0.4760360000D+00  0.1055038433D+01
 S   1 1.00       0.000000000000
      0.2873528000D+01  0.1000000000D+01
 S   1 1.00       0.000000000000
      0.1497890000D+00  0.1000000000D+01
 P   3 1.00       0.000000000000
      0.9439681000D+01  0.5693904529D-01
      0.2000405000D+01  0.3133262492D+00
      0.5449160000D+00  0.7603556048D+00
 P   1 1.00       0.000000000000
      0.1208140000D+02  0.1000000000D+01
 P   1 1.00       0.000000000000
      0.1514610000D+00  0.1000000000D+01
 D   2 1.00       0.000000000000
      0.1251463000D+01  0.3572049015D+00
      0.3377940000D+00  0.7736517033D+00
 ****
     10 0
 S   5 1.00       0.000000000000
      0.2804430940D+04  0.2721001118D-02
      0.4212028430D+03  0.2075900853D-01
      0.9581016100D+02  0.1010630415D+00
      0.2692019100D+02  0.3347061376D+00
      0.8564436000D+01  0.6469132659D+00
 S   2 1.00       0.000000000000
      0.5147134000D+01 -0.1572439155D+00
      0.4760360000D+00  0.1055038433D+01
 S   1 1.00       0.000000000000
      0.2873528000D+01  0.1000000000D+01
 S   1 1.00       0.000000000000
      0.1497890000D+00  0.1000000000D+01
 P   3 1.00       0.000000000000
      0.9439681000D+01  0.5693904529D-01
      0.2000405000D+01  0.3133262492D+00
      0.5449160000D+00  0.7603556048D+00
 P   1 1.00       0.000000000000
      0.1208140000D+02  0.1000000000D+01
 P   1 1.00       0.000000000000
      0.1514610000D+00  0.1000000000D+01
 D   2 1.00       0.000000000000
      0.1251463000D+01  0.3572049015D+00
      0.3377940000D+00  0.7736517033D+00
 ****
     11 0
 S   5 1.00       0.000000000000
      0.2804430940D+04  0.2721001118D-02
      0.4212028430D+03  0.2075900853D-01
      0.9581016100D+02  0.1010630415D+00
      0.2692019100D+02  0.3347061376D+00
      0.8564436000D+01  0.6469132659D+00
 S   2 1.00       0.000000000000
      0.5147134000D+01 -0.1572439155D+00
      0.4760360000D+00  0.1055038433D+01
 S   1 1.00       0.000000000000
      0.2873528000D+01  0.1000000000D+01
 S   1 1.00       0.000000000000
      0.1497890000D+00  0.1000000000D+01
 P   3 1.00       0.000000000000
      0.9439681000D+01  0.5693904529D-01
      0.2000405000D+01  0.3133262492D+00
      0.5449160000D+00  0.7603556048D+00
 P   1 1.00       0.000000000000
      0.1208140000D+02  0.1000000000D+01
 P   1 1.00       0.000000000000
      0.1514610000D+00  0.1000000000D+01
 D   2 1.00       0.000000000000
      0.1251463000D+01  0.3572049015D+00
      0.3377940000D+00  0.7736517033D+00
 ****
     12 0
 S   5 1.00       0.000000000000
      0.2804430940D+04  0.2721001118D-02
      0.4212028430D+03  0.2075900853D-01
      0.9581016100D+02  0.1010630415D+00
      0.2692019100D+02  0.3347061376D+00
      0.8564436000D+01  0.6469132659D+00
 S   2 1.00       0.000000000000
      0.5147134000D+01 -0.1572439155D+00
      0.4760360000D+00  0.1055038433D+01
 S   1 1.00       0.000000000000
      0.2873528000D+01  0.1000000000D+01
 S   1 1.00       0.000000000000
      0.1497890000D+00  0.1000000000D+01
 P   3 1.00       0.000000000000
      0.9439681000D+01  0.5693904529D-01
      0.2000405000D+01  0.3133262492D+00
      0.5449160000D+00  0.7603556048D+00
 P   1 1.00       0.000000000000
      0.1208140000D+02  0.1000000000D+01
 P   1 1.00       0.000000000000
      0.1514610000D+00  0.1000000000D+01
 D   2 1.00       0.000000000000
      0.1251463000D+01  0.3572049015D+00
      0.3377940000D+00  0.7736517033D+00
 ****
     13 0
 S   5 1.00       0.000000000000
      0.2804430940D+04  0.2721001118D-02
      0.4212028430D+03  0.2075900853D-01
      0.9581016100D+02  0.1010630415D+00
      0.2692019100D+02  0.3347061376D+00
      0.8564436000D+01  0.6469132659D+00
 S   2 1.00       0.000000000000
      0.5147134000D+01 -0.1572439155D+00
      0.4760360000D+00  0.1055038433D+01
 S   1 1.00       0.000000000000
      0.2873528000D+01  0.1000000000D+01
 S   1 1.00       0.000000000000
      0.1497890000D+00  0.1000000000D+01
 P   3 1.00       0.000000000000
      0.9439681000D+01  0.5693904529D-01
      0.2000405000D+01  0.3133262492D+00
      0.5449160000D+00  0.7603556048D+00
 P   1 1.00       0.000000000000
      0.1208140000D+02  0.1000000000D+01
 P   1 1.00       0.000000000000
      0.1514610000D+00  0.1000000000D+01
 D   2 1.00       0.000000000000
      0.1251463000D+01  0.3572049015D+00
      0.3377940000D+00  0.7736517033D+00
 ****
     14 0
 S   5 1.00       0.000000000000
      0.2804430940D+04  0.2721001118D-02
      0.4212028430D+03  0.2075900853D-01
      0.9581016100D+02  0.1010630415D+00
      0.2692019100D+02  0.3347061376D+00
      0.8564436000D+01  0.6469132659D+00
 S   2 1.00       0.000000000000
      0.5147134000D+01 -0.1572439155D+00
      0.4760360000D+00  0.1055038433D+01
 S   1 1.00       0.000000000000
      0.2873528000D+01  0.1000000000D+01
 S   1 1.00       0.000000000000
      0.1497890000D+00  0.1000000000D+01
 P   3 1.00       0.000000000000
      0.9439681000D+01  0.5693904529D-01
      0.2000405000D+01  0.3133262492D+00
      0.5449160000D+00  0.7603556048D+00
 P   1 1.00       0.000000000000
      0.1208140000D+02  0.1000000000D+01
 P   1 1.00       0.000000000000
      0.1514610000D+00  0.1000000000D+01
 D   2 1.00       0.000000000000
      0.1251463000D+01  0.3572049015D+00
      0.3377940000D+00  0.7736517033D+00
 ****
     15 0
 S   5 1.00       0.000000000000
      0.2804430940D+04  0.2721001118D-02
      0.4212028430D+03  0.2075900853D-01
      0.9581016100D+02  0.1010630415D+00
      0.2692019100D+02  0.3347061376D+00
      0.8564436000D+01  0.6469132659D+00
 S   2 1.00       0.000000000000
      0.5147134000D+01 -0.1572439155D+00
      0.4760360000D+00  0.1055038433D+01
 S   1 1.00       0.000000000000
      0.2873528000D+01  0.1000000000D+01
 S   1 1.00       0.000000000000
      0.1497890000D+00  0.1000000000D+01
 P   3 1.00       0.000000000000
      0.9439681000D+01  0.5693904529D-01
      0.2000405000D+01  0.3133262492D+00
      0.5449160000D+00  0.7603556048D+00
 P   1 1.00       0.000000000000
      0.1208140000D+02  0.1000000000D+01
 P   1 1.00       0.000000000000
      0.1514610000D+00  0.1000000000D+01
 D   2 1.00       0.000000000000
      0.1251463000D+01  0.3572049015D+00
      0.3377940000D+00  0.7736517033D+00
 ****
     16 0
 S   5 1.00       0.000000000000
      0.2804430940D+04  0.2721001118D-02
      0.4212028430D+03  0.2075900853D-01
      0.9581016100D+02  0.1010630415D+00
      0.2692019100D+02  0.3347061376D+00
      0.8564436000D+01  0.6469132659D+00
 S   2 1.00       0.000000000000
      0.5147134000D+01 -0.1572439155D+00
      0.4760360000D+00  0.1055038433D+01
 S   1 1.00       0.000000000000
      0.2873528000D+01  0.1000000000D+01
 S   1 1.00       0.000000000000
      0.1497890000D+00  0.1000000000D+01
 P   3 1.00       0.000000000000
      0.9439681000D+01  0.5693904529D-01
      0.2000405000D+01  0.3133262492D+00
      0.5449160000D+00  0.7603556048D+00
 P   1 1.00       0.000000000000
      0.1208140000D+02  0.1000000000D+01
 P   1 1.00       0.000000000000
      0.1514610000D+00  0.1000000000D+01
 D   2 1.00       0.000000000000
      0.1251463000D+01  0.3572049015D+00
      0.3377940000D+00  0.7736517033D+00
 ****
     17 0
 S   5 1.00       0.000000000000
      0.2804430940D+04  0.2721001118D-02
      0.4212028430D+03  0.2075900853D-01
      0.9581016100D+02  0.1010630415D+00
      0.2692019100D+02  0.3347061376D+00
      0.8564436000D+01  0.6469132659D+00
 S   2 1.00       0.000000000000
      0.5147134000D+01 -0.1572439155D+00
      0.4760360000D+00  0.1055038433D+01
 S   1 1.00       0.000000000000
      0.2873528000D+01  0.1000000000D+01
 S   1 1.00       0.000000000000
      0.1497890000D+00  0.1000000000D+01
 P   3 1.00       0.000000000000
      0.9439681000D+01  0.5693904529D-01
      0.2000405000D+01  0.3133262492D+00
      0.5449160000D+00  0.7603556048D+00
 P   1 1.00       0.000000000000
      0.1208140000D+02  0.1000000000D+01
 P   1 1.00       0.000000000000
      0.1514610000D+00  0.1000000000D+01
 D   2 1.00       0.000000000000
      0.1251463000D+01  0.3572049015D+00
      0.3377940000D+00  0.7736517033D+00
 ****
     18 0
 S   5 1.00       0.000000000000
      0.2804430940D+04  0.2721001118D-02
      0.4212028430D+03  0.2075900853D-01
      0.9581016100D+02  0.1010630415D+00
      0.2692019100D+02  0.3347061376D+00
      0.8564436000D+01  0.6469132659D+00
 S   2 1.00       0.000000000000
      0.5147134000D+01 -0.1572439155D+00
      0.4760360000D+00  0.1055038433D+01
 S   1 1.00       0.000000000000
      0.2873528000D+01  0.1000000000D+01
 S   1 1.00       0.000000000000
      0.1497890000D+00  0.1000000000D+01
 P   3 1.00       0.000000000000
      0.9439681000D+01  0.5693904529D-01
      0.2000405000D+01  0.3133262492D+00
      0.5449160000D+00  0.7603556048D+00
 P   1 1.00       0.000000000000
      0.1208140000D+02  0.1000000000D+01
 P   1 1.00       0.000000000000
      0.1514610000D+00  0.1000000000D+01
 D   2 1.00       0.000000000000
      0.1251463000D+01  0.3572049015D+00
      0.3377940000D+00  0.7736517033D+00
 ****
     19 0
 S   3 1.00       0.000000000000
      0.1301070030D+02  0.3348549824D-01
      0.1962257100D+01  0.2347218877D+00
      0.4445380000D+00  0.8137702573D+00
 S   1 1.00       0.000000000000
      0.1219496000D+00  0.1000000000D+01
 P   3 1.00       0.000000000000
      0.2860673000D+01  0.1288559886D+00
      0.8881900000D+00  0.6197487451D+00
      0.3037760000D+00  0.3731128670D+00
 ****
     20 0
 S   5 1.00       0.000000000000
      0.2804430940D+04  0.2721001118D-02
      0.4212028430D+03  0.2075900853D-01
      0.9581016100D+02  0.1010630415D+00
      0.2692019100D+02  0.3347061376D+00
      0.8564436000D+01  0.6469132659D+00
 S   2 1.00       0.000000000000
      0.5147134000D+01 -0.1572439155D+00
      0.4760360000D+00  0.1055038433D+01
 S   1 1.00       0.000000000000
      0.2873528000D+01  0.1000000000D+01
 S   1 1.00       0.000000000000
      0.1497890000D+00  0.1000000000D+01
 P   3 1.00       0.000000000000
      0.9439681000D+01  0.5693904529D-01
      0.2000405000D+01  0.3133262492D+00
      0.5449160000D+00  0.7603556048D+00
 P   1 1.00       0.000000000000
      0.1208140000D+02  0.1000000000D+01
 P   1 1.00       0.000000000000
      0.1514610000D+00  0.1000000000D+01
 D   2 1.00       0.000000000000
      0.1251463000D+01  0.3572049015D+00
      0.3377940000D+00  0.7736517033D+00
 ****
     21 0
 S   5 1.00       0.000000000000
      0.2804430940D+04  0.2721001118D-02
      0.4212028430D+03  0.2075900853D-01
      0.9581016100D+02  0.1010630415D+00
      0.2692019100D+02  0.3347061376D+00
      0.8564436000D+01  0.6469132659D+00
 S   2 1.00       0.000000000000
      0.5147134000D+01 -0.1572439155D+00
      0.4760360000D+00  0.1055038433D+01
 S   1 1.00       0.000000000000
      0.2873528000D+01  0.1000000000D+01
 S   1 1.00       0.000000000000
      0.1497890000D+00  0.1000000000D+01
 P   3 1.00       0.000000000000
      0.9439681000D+01  0.5693904529D-01
      0.2000405000D+01  0.3133262492D+00
      0.5449160000D+00  0.7603556048D+00
 P   1 1.00       0.000000000000
      0.1208140000D+02  0.1000000000D+01
 P   1 1.00       0.000000000000
      0.1514610000D+00  0.1000000000D+01
 D   2 1.00       0.000000000000
      0.1251463000D+01  0.3572049015D+00
      0.3377940000D+00  0.7736517033D+00
 ****
     22 0
 S   5 1.00       0.000000000000
      0.6441748812D+04  0.2682998400D-02
      0.9674496590D+03  0.2049298778D-01
      0.2200774950D+03  0.1002299402D+00
      0.6193909600D+02  0.3355307999D+00
      0.1984325400D+02  0.6460776148D+00
 S   2 1.00       0.000000000000
      0.1329128200D+02 -0.1536430297D+00
      0.1224691000D+01  0.1053853204D+01
 S   1 1.00       0.000000000000
      0.6708312000D+01  0.1000000000D+01
 S   1 1.00       0.000000000000
      0.3709490000D+00  0.1000000000D+01
 P   3 1.00       0.000000000000
      0.2266416100D+02  0.6481703788D-01
      0.4974926000D+01  0.3406421991D+00
      0.1345723000D+01  0.7346284293D+00
 P   1 1.00       0.000000000000
      0.2840795300D+02  0.1000000000D+01
 P   1 1.00       0.000000000000
      0.3468310000D+00  0.1000000000D+01
 D   2 1.00       0.000000000000
      0.3495868000D+01  0.3496370832D+00
      0.9160300000D+00  0.7837371623D+00
 ****
     23 0
 S   5 1.00       0.000000000000
      0.6441748812D+04  0.2682998400D-02
      0.9674496590D+03  0.2049298778D-01
      0.2200774950D+03  0.1002299402D+00
      0.6193909600D+02  0.3355307999D+00
      0.1984325400D+02  0.6460776148D+00
 S   2 1.00       0.000000000000
      0.1329128200D+02 -0.1536430297D+00
      0.1224691000D+01  0.1053853204D+01
 S   1 1.00       0.000000000000
      0.6708312000D+01  0.1000000000D+01
 S   1 1.00       0.000000000000
      0.3709490000D+00  0.1000000000D+01
 P   3 1.00       0.000000000000
      0.2266416100D+02  0.6481703788D-01
      0.4974926000D+01  0.3406421991D+00
      0.1345723000D+01  0.7346284293D+00
 P   1 1.00       0.000000000000
      0.2840795300D+02  0.1000000000D+01
 P   1 1.00       0.000000000000
      0.3468310000D+00  0.1000000000D+01
 D   2 1.00       0.000000000000
      0.3495868000D+01  0.3496370832D+00
      0.9160300000D+00  0.7837371623D+00
 ****
     24 0
 S   3 1.00       0.000000000000
      0.1301070030D+02  0.3348549824D-01
      0.1962257100D+01  0.2347218877D+00
      0.4445380000D+00  0.8137702573D+00
 S   1 1.00       0.000000000000
      0.1219496000D+00  0.1000000000D+01
 P   3 1.00       0.000000000000
      0.2860673000D+01  0.1288559886D+00
      0.8881900000D+00  0.6197487451D+00
      0.3037760000D+00  0.3731128670D+00
 ****
     25 0
 S   5 1.00       0.000000000000
      0.2804430940D+04  0.2721001118D-02
      0.4212028430D+03  0.2075900853D-01
      0.9581016100D+02  0.1010630415D+00
      0.2692019100D+02  0.3347061376D+00
      0.8564436000D+01  0.6469132659D+00
 S   2 1.00       0.000000000000
      0.5147134000D+01 -0.1572439155D+00
      0.4760360000D+00  0.1055038433D+01
 S   1 1.00       0.000000000000
      0.2873528000D+01  0.1000000000D+01
 S   1 1.00       0.000000000000
      0.1497890000D+00  0.1000000000D+01
 P   3 1.00       0.000000000000
      0.9439681000D+01  0.5693904529D-01
      0.2000405000D+01  0.3133262492D+00
      0.5449160000D+00  0.7603556048D+00
 P   1 1.00       0.000000000000
      0.1208140000D+02  0.1000000000D+01
 P   1 1.00       0.000000000000
      0.1514610000D+00  0.1000000000D+01
 D   2 1.00       0.000000000000
      0.1251463000D+01  0.3572049015D+00
      0.3377940000D+00  0.7736517033D+00
 ****
     26 0
 S   3 1.00       0.000000000000
      0.1301070030D+02  0.3348549824D-01
      0.1962257100D+01  0.2347218877D+00
      0.4445380000D+00  0.8137702573D+00
 S   1 1.00       0.000000000000
      0.1219496000D+00  0.1000000000D+01
 P   3 1.00       0.000000000000
      0.2860673000D+01  0.1288559886D+00
      0.8881900000D+00  0.6197487451D+00
      0.3037760000D+00  0.3731128670D+00
 ****
     27 0
 S   3 1.00       0.000000000000
      0.1301070030D+02  0.3348549824D-01
      0.1962257100D+01  0.2347218877D+00
      0.4445380000D+00  0.8137702573D+00
 S   1 1.00       0.000000000000
      0.1219496000D+00  0.1000000000D+01
 P   3 1.00       0.000000000000
      0.2860673000D+01  0.1288559886D+00
      0.8881900000D+00  0.6197487451D+00
      0.3037760000D+00  0.3731128670D+00
 ****
     28 0
 S   5 1.00       0.000000000000
      0.2804430940D+04  0.2721001118D-02
      0.4212028430D+03  0.2075900853D-01
      0.9581016100D+02  0.1010630415D+00
      0.2692019100D+02  0.3347061376D+00
      0.8564436000D+01  0.6469132659D+00
 S   2 1.00       0.000000000000
      0.5147134000D+01 -0.1572439155D+00
      0.4760360000D+00  0.1055038433D+01
 S   1 1.00       0.000000000000
      0.2873528000D+01  0.1000000000D+01
 S   1 1.00       0.000000000000
      0.1497890000D+00  0.1000000000D+01
 P   3 1.00       0.000000000000
      0.9439681000D+01  0.5693904529D-01
      0.2000405000D+01  0.3133262492D+00
      0.5449160000D+00  0.7603556048D+00
 P   1 1.00       0.000000000000
      0.1208140000D+02  0.1000000000D+01
 P   1 1.00       0.000000000000
      0.1514610000D+00  0.1000000000D+01
 D   2 1.00       0.000000000000
      0.1251463000D+01  0.3572049015D+00
      0.3377940000D+00  0.7736517033D+00
 ****
     29 0
 S   3 1.00       0.000000000000
      0.1301070030D+02  0.3348549824D-01
      0.1962257100D+01  0.2347218877D+00
      0.4445380000D+00  0.8137702573D+00
 S   1 1.00       0.000000000000
      0.1219496000D+00  0.1000000000D+01
 P   3 1.00       0.000000000000
      0.2860673000D+01  0.1288559886D+00
      0.8881900000D+00  0.6197487451D+00
      0.3037760000D+00  0.3731128670D+00
 ****
     30 0
 S   3 1.00       0.000000000000
      0.1301070030D+02  0.3348549824D-01
      0.1962257100D+01  0.2347218877D+00
      0.4445380000D+00  0.8137702573D+00
 S   1 1.00       0.000000000000
      0.1219496000D+00  0.1000000000D+01
 P   3 1.00       0.000000000000
      0.2860673000D+01  0.1288559886D+00
      0.8881900000D+00  0.6197487451D+00
      0.3037760000D+00  0.3731128670D+00
 ****
     31 0
 S   5 1.00       0.000000000000
      0.2804430940D+04  0.2721001118D-02
      0.4212028430D+03  0.2075900853D-01
      0.9581016100D+02  0.1010630415D+00
      0.2692019100D+02  0.3347061376D+00
      0.8564436000D+01  0.6469132659D+00
 S   2 1.00       0.000000000000
      0.5147134000D+01 -0.1572439155D+00
      0.4760360000D+00  0.1055038433D+01
 S   1 1.00       0.000000000000
      0.2873528000D+01  0.1000000000D+01
 S   1 1.00       0.000000000000
      0.1497890000D+00  0.1000000000D+01
 P   3 1.00       0.000000000000
      0.9439681000D+01  0.5693904529D-01
      0.2000405000D+01  0.3133262492D+00
      0.5449160000D+00  0.7603556048D+00
 P   1 1.00       0.000000000000
      0.1208140000D+02  0.1000000000D+01
 P   1 1.00       0.000000000000
      0.1514610000D+00  0.1000000000D+01
 D   2 1.00       0.000000000000
      0.1251463000D+01  0.3572049015D+00
      0.3377940000D+00  0.7736517033D+00
 ****
     32 0
 S   5 1.00       0.000000000000
      0.2804430940D+04  0.2721001118D-02
      0.4212028430D+03  0.2075900853D-01
      0.9581016100D+02  0.1010630415D+00
      0.2692019100D+02  0.3347061376D+00
      0.8564436000D+01  0.6469132659D+00
 S   2 1.00       0.000000000000
      0.5147134000D+01 -0.1572439155D+00
      0.4760360000D+00  0.1055038433D+01
 S   1 1.00       0.000000000000
      0.2873528000D+01  0.1000000000D+01
 S   1 1.00       0.000000000000
      0.1497890000D+00  0.1000000000D+01
 P   3 1.00       0.000000000000
      0.9439681000D+01  0.5693904529D-01
      0.2000405000D+01  0.3133262492D+00
      0.5449160000D+00  0.7603556048D+00
 P   1 1.00       0.000000000000
      0.1208140000D+02  0.1000000000D+01
 P   1 1.00       0.000000000000
      0.1514610000D+00  0.1000000000D+01
 D   2 1.00       0.000000000000
      0.1251463000D+01  0.3572049015D+00
      0.3377940000D+00  0.7736517033D+00
 ****
     33 0
 S   5 1.00       0.000000000000
      0.2804430940D+04  0.2721001118D-02
      0.4212028430D+03  0.2075900853D-01
      0.9581016100D+02  0.1010630415D+00
      0.2692019100D+02  0.3347061376D+00
      0.8564436000D+01  0.6469132659D+00
 S   2 1.00       0.000000000000
      0.5147134000D+01 -0.1572439155D+00
      0.4760360000D+00  0.1055038433D+01
 S   1 1.00       0.000000000000
      0.2873528000D+01  0.1000000000D+01
 S   1 1.00       0.000000000000
      0.1497890000D+00  0.1000000000D+01
 P   3 1.00       0.000000000000
      0.9439681000D+01  0.5693904529D-01
      0.2000405000D+01  0.3133262492D+00
      0.5449160000D+00  0.7603556048D+00
 P   1 1.00       0.000000000000
      0.1208140000D+02  0.1000000000D+01
 P   1 1.00       0.000000000000
      0.1514610000D+00  0.1000000000D+01
 D   2 1.00       0.000000000000
      0.1251463000D+01  0.3572049015D+00
      0.3377940000D+00  0.7736517033D+00
 ****
     34 0
 S   5 1.00       0.000000000000
      0.2804430940D+04  0.2721001118D-02
      0.4212028430D+03  0.2075900853D-01
      0.9581016100D+02  0.1010630415D+00
      0.2692019100D+02  0.3347061376D+00
      0.8564436000D+01  0.6469132659D+00
 S   2 1.00       0.000000000000
      0.5147134000D+01 -0.1572439155D+00
      0.4760360000D+00  0.1055038433D+01
 S   1 1.00       0.000000000000
      0.2873528000D+01  0.1000000000D+01
 S   1 1.00       0.000000000000
      0.1497890000D+00  0.1000000000D+01
 P   3 1.00       0.000000000000
      0.9439681000D+01  0.5693904529D-01
      0.2000405000D+01  0.3133262492D+00
      0.5449160000D+00  0.7603556048D+00
 P   1 1.00       0.000000000000
      0.1208140000D+02  0.1000000000D+01
 P   1 1.00       0.000000000000
      0.1514610000D+00  0.1000000000D+01
 D   2 1.00       0.000000000000
      0.1251463000D+01  0.3572049015D+00
      0.3377940000D+00  0.7736517033D+00
 ****
     35 0
 S   5 1.00       0.000000000000
      0.2804430940D+04  0.2721001118D-02
      0.4212028430D+03  0.2075900853D-01
      0.9581016100D+02  0.1010630415D+00
      0.2692019100D+02  0.3347061376D+00
      0.8564436000D+01  0.6469132659D+00
 S   2 1.00       0.000000000000
      0.5147134000D+01 -0.1572439155D+00
      0.4760360000D+00  0.1055038433D+01
 S   1 1.00       0.000000000000
      0.2873528000D+01  0.1000000000D+01
 S   1 1.00       0.000000000000
      0.1497890000D+00  0.1000000000D+01
 P   3 1.00       0.000000000000
      0.9439681000D+01  0.5693904529D-01
      0.2000405000D+01  0.3133262492D+00
      0.5449160000D+00  0.7603556048D+00
 P   1 1.00       0.000000000000
      0.1208140000D+02  0.1000000000D+01
 P   1 1.00       0.000000000000
      0.1514610000D+00  0.1000000000D+01
 D   2 1.00       0.000000000000
      0.1251463000D+01  0.3572049015D+00
      0.3377940000D+00  0.7736517033D+00
 ****
     36 0
 S   5 1.00       0.000000000000
      0.2804430940D+04  0.2721001118D-02
      0.4212028430D+03  0.2075900853D-01
      0.9581016100D+02  0.1010630415D+00
      0.2692019100D+02  0.3347061376D+00
      0.8564436000D+01  0.6469132659D+00
 S   2 1.00       0.000000000000
      0.5147134000D+01 -0.1572439155D+00
      0.4760360000D+00  0.1055038433D+01
 S   1 1.00       0.000000000000
      0.2873528000D+01  0.1000000000D+01
 S   1 1.00       0.000000000000
      0.1497890000D+00  0.1000000000D+01
 P   3 1.00       0.000000000000
      0.9439681000D+01  0.5693904529D-01
      0.2000405000D+01  0.3133262492D+00
      0.5449160000D+00  0.7603556048D+00
 P   1 1.00       0.000000000000
      0.1208140000D+02  0.1000000000D+01
 P   1 1.00       0.000000000000
      0.1514610000D+00  0.1000000000D+01
 D   2 1.00       0.000000000000
      0.1251463000D+01  0.3572049015D+00
      0.3377940000D+00  0.7736517033D+00
 ****
     37 0
 S   5 1.00       0.000000000000
      0.2804430940D+04  0.2721001118D-02
      0.4212028430D+03  0.2075900853D-01
      0.9581016100D+02  0.1010630415D+00
      0.2692019100D+02  0.3347061376D+00
      0.8564436000D+01  0.6469132659D+00
 S   2 1.00       0.000000000000
      0.5147134000D+01 -0.1572439155D+00
      0.4760360000D+00  0.1055038433D+01
 S   1 1.00       0.000000000000
      0.2873528000D+01  0.1000000000D+01
 S   1 1.00       0.000000000000
      0.1497890000D+00  0.1000000000D+01
 P   3 1.00       0.000000000000
      0.9439681000D+01  0.5693904529D-01
      0.2000405000D+01  0.3133262492D+00
      0.5449160000D+00  0.7603556048D+00
 P   1 1.00       0.000000000000
      0.1208140000D+02  0.1000000000D+01
 P   1 1.00       0.000000000000
      0.1514610000D+00  0.1000000000D+01
 D   2 1.00       0.000000000000
      0.1251463000D+01  0.3572049015D+00
      0.3377940000D+00  0.7736517033D+00
 ****
     38 0
 S   5 1.00       0.000000000000
      0.3849641448D+04  0.2704998987D-02
      0.5781703240D+03  0.2064999226D-01
      0.1315181170D+03  0.1007249623D+00
      0.3697931300D+02  0.3350778745D+00
      0.1180032400D+02  0.6465197578D+00
 S   2 1.00       0.000000000000
      0.7440571000D+01 -0.1558240738D+00
      0.6860190000D+00  0.1054501499D+01
 S   1 1.00       0.000000000000
      0.3971643000D+01  0.1000000000D+01
 S   1 1.00       0.000000000000
      0.2120870000D+00  0.1000000000D+01
 P   3 1.00       0.000000000000
      0.1354380200D+02  0.5888501217D-01
      0.2915456000D+01  0.3205350662D+00
      0.7963920000D+00  0.7530591556D+00
 P   1 1.00       0.000000000000
      0.1679153700D+02  0.1000000000D+01
 P   1 1.00       0.000000000000
      0.2182450000D+00  0.1000000000D+01
 D   2 1.00       0.000000000000
      0.1873384000D+01  0.3533059913D+00
      0.4939230000D+00  0.7800499807D+00
 ****
     39 0
 S   3 1.00       0.000000000000
      0.1301070030D+02  0.3348549824D-01
      0.1962257100D+01  0.2347218877D+00
      0.4445380000D+00  0.8137702573D+00
 S   1 1.00       0.000000000000
      0.1219496000D+00  0.1000000000D+01
 P   3 1.00       0.000000000000
      0.2860673000D+01  0.1288559886D+00
      0.8881900000D+00  0.6197487451D+00
      0.3037760000D+00  0.3731128670D+00
 ****
     40 0
 S   5 1.00       0.000000000000
      0.6441748812D+04  0.2682998400D-02
      0.9674496590D+03  0.2049298778D-01
      0.2200774950D+03  0.1002299402D+00
      0.6193909600D+02  0.3355307999D+00
      0.1984325400D+02  0.6460776148D+00
 S   2 1.00       0.000000000000
      0.1329128200D+02 -0.1536430297D+00
      0.1224691000D+01  0.1053853204D+01
 S   1 1.00       0.000000000000
      0.6708312000D+01  0.1000000000D+01
 S   1 1.00       0.000000000000
      0.3709490000D+00  0.1000000000D+01
 P   3 1.00       0.000000000000
      0.2266416100D+02  0.6481703788D-01
      0.4974926000D+01  0.3406421991D+00
      0.1345723000D+01  0.7346284293D+00
 P   1 1.00       0.000000000000
      0.2840795300D+02  0.1000000000D+01
 P   1 1.00       0.000000000000
      0.3468310000D+00  0.1000000000D+01
 D   2 1.00       0.000000000000
      0.3495868000D+01  0.3496370832D+00
      0.9160300000D+00  0.7837371623D+00
 ****
     41 0
 S   5 1.00       0.000000000000
      0.6441748812D+04  0.2682998400D-02
      0.9674496590D+03  0.2049298778D-01
      0.2200774950D+03  0.1002299402D+00
      0.6193909600D+02  0.3355307999D+00
      0.1984325400D+02  0.6460776148D+00
 S   2 1.00       0.000000000000
      0.1329128200D+02 -0.1536430297D+00
      0.1224691000D+01  0.1053853204D+01
 S   1 1.00       0.000000000000
      0.6708312000D+01  0.1000000000D+01
 S   1 1.00       0.000000000000
      0.3709490000D+00  0.1000000000D+01
 P   3 1.00       0.000000000000
      0.2266416100D+02  0.6481703788D-01
      0.4974926000D+01  0.3406421991D+00
      0.1345723000D+01  0.7346284293D+00
 P   1 1.00       0.000000000000
      0.2840795300D+02  0.1000000000D+01
 P   1 1.00       0.000000000000
      0.3468310000D+00  0.1000000000D+01
 D   2 1.00       0.000000000000
      0.3495868000D+01  0.3496370832D+00
      0.9160300000D+00  0.7837371623D+00
 ****
     42 0
 S   5 1.00       0.000000000000
      0.6441748812D+04  0.2682998400D-02
      0.9674496590D+03  0.2049298778D-01
      0.2200774950D+03  0.1002299402D+00
      0.6193909600D+02  0.3355307999D+00
      0.1984325400D+02  0.6460776148D+00
 S   2 1.00       0.000000000000
      0.1329128200D+02 -0.1536430297D+00
      0.1224691000D+01  0.1053853204D+01
 S   1 1.00       0.000000000000
      0.6708312000D+01  0.1000000000D+01
 S   1 1.00       0.000000000000
      0.3709490000D+00  0.1000000000D+01
 P   3 1.00       0.000000000000
      0.2266416100D+02  0.6481703788D-01
      0.4974926000D+01  0.3406421991D+00
      0.1345723000D+01  0.7346284293D+00
 P   1 1.00       0.000000000000
      0.2840795300D+02  0.1000000000D+01
 P   1 1.00       0.000000000000
      0.3468310000D+00  0.1000000000D+01
 D   2 1.00       0.000000000000
      0.3495868000D+01  0.3496370832D+00
      0.9160300000D+00  0.7837371623D+00
 ****
     43 0
 S   5 1.00       0.000000000000
      0.6441748812D+04  0.2682998400D-02
      0.9674496590D+03  0.2049298778D-01
      0.2200774950D+03  0.1002299402D+00
      0.6193909600D+02  0.3355307999D+00
      0.1984325400D+02  0.6460776148D+00
 S   2 1.00       0.000000000000
      0.1329128200D+02 -0.1536430297D+00
      0.1224691000D+01  0.1053853204D+01
 S   1 1.00       0.000000000000
      0.6708312000D+01  0.1000000000D+01
 S   1 1.00       0.000000000000
      0.3709490000D+00  0.1000000000D+01
 P   3 1.00       0.000000000000
      0.2266416100D+02  0.6481703788D-01
      0.4974926000D+01  0.3406421991D+00
      0.1345723000D+01  0.7346284293D+00
 P   1 1.00       0.000000000000
      0.2840795300D+02  0.1000000000D+01
 P   1 1.00       0.000000000000
      0.3468310000D+00  0.1000000000D+01
 D   2 1.00       0.000000000000
      0.3495868000D+01  0.3496370832D+00
      0.9160300000D+00  0.7837371623D+00
 ****
     44 0
 S   5 1.00       0.000000000000
      0.6441748812D+04  0.2682998400D-02
      0.9674496590D+03  0.2049298778D-01
      0.2200774950D+03  0.1002299402D+00
      0.6193909600D+02  0.3355307999D+00
      0.1984325400D+02  0.6460776148D+00
 S   2 1.00       0.000000000000
      0.1329128200D+02 -0.1536430297D+00
      0.1224691000D+01  0.1053853204D+01
 S   1 1.00       0.000000000000
      0.6708312000D+01  0.1000000000D+01
 S   1 1.00       0.000000000000
      0.3709490000D+00  0.1000000000D+01
 P   3 1.00       0.000000000000
      0.2266416100D+02  0.6481703788D-01
      0.4974926000D+01  0.3406421991D+00
      0.1345723000D+01  0.7346284293D+00
 P   1 1.00       0.000000000000
      0.2840795300D+02  0.1000000000D+01
 P   1 1.00       0.000000000000
      0.3468310000D+00  0.1000000000D+01
 D   2 1.00       0.000000000000
      0.3495868000D+01  0.3496370832D+00
      0.9160300000D+00  0.7837371623D+00
 ****
     45 0
 S   5 1.00       0.000000000000
      0.6441748812D+04  0.2682998400D-02
      0.9674496590D+03  0.2049298778D-01
      0.2200774950D+03  0.1002299402D+00
      0.6193909600D+02  0.3355307999D+00
      0.1984325400D+02  0.6460776148D+00
 S   2 1.00       0.000000000000
      0.1329128200D+02 -0.1536430297D+00
      0.1224691000D+01  0.1053853204D+01
 S   1 1.00       0.000000000000
      0.6708312000D+01  0.1000000000D+01
 S   1 1.00       0.000000000000
      0.3709490000D+00  0.1000000000D+01
 P   3 1.00       0.000000000000
      0.2266416100D+02  0.6481703788D-01
      0.4974926000D+01  0.3406421991D+00
      0.1345723000D+01  0.7346284293D+00
 P   1 1.00       0.000000000000
      0.2840795300D+02  0.1000000000D+01
 P   1 1.00       0.000000000000
      0.3468310000D+00  0.1000000000D+01
 D   2 1.00       0.000000000000
      0.3495868000D+01  0.3496370832D+00
      0.9160300000D+00  0.7837371623D+00
 ****
     46 0
 S   3 1.00       0.000000000000
      0.1301070030D+02  0.3348549824D-01
      0.1962257100D+01  0.2347218877D+00
      0.4445380000D+00  0.8137702573D+00
 S   1 1.00       0.000000000000
      0.1219496000D+00  0.1000000000D+01
 P   3 1.00       0.000000000000
      0.2860673000D+01  0.1288559886D+00
      0.8881900000D+00  0.6197487451D+00
      0.3037760000D+00  0.3731128670D+00
 ****
     47 0
 S   3 1.00       0.000000000000
      0.1301070030D+02  0.3348549824D-01
      0.1962257100D+01  0.2347218877D+00
      0.4445380000D+00  0.8137702573D+00
 S   1 1.00       0.000000000000
      0.1219496000D+00  0.1000000000D+01
 P   3 1.00       0.000000000000
      0.2860673000D+01  0.1288559886D+00
      0.8881900000D+00  0.6197487451D+00
      0.3037760000D+00  0.3731128670D+00
 ****
     48 0
 S   3 1.00       0.000000000000
      0.1301070030D+02  0.3348549824D-01
      0.1962257100D+01  0.2347218877D+00
      0.4445380000D+00  0.8137702573D+00
 S   1 1.00       0.000000000000
      0.1219496000D+00  0.1000000000D+01
 P   3 1.00       0.000000000000
      0.2860673000D+01  0.1288559886D+00
      0.8881900000D+00  0.6197487451D+00
      0.3037760000D+00  0.3731128670D+00
 ****
     49 0
 S   3 1.00       0.000000000000
      0.1301070030D+02  0.3348549824D-01
      0.1962257100D+01  0.2347218877D+00
      0.4445380000D+00  0.8137702573D+00
 S   1 1.00       0.000000000000
      0.1219496000D+00  0.1000000000D+01
 P   3 1.00       0.000000000000
      0.2860673000D+01  0.1288559886D+00
      0.8881900000D+00  0.6197487451D+00
      0.3037760000D+00  0.3731128670D+00
 ****
     50 0
 S   5 1.00       0.000000000000
      0.2804430940D+04  0.2721001118D-02
      0.4212028430D+03  0.2075900853D-01
      0.9581016100D+02  0.1010630415D+00
      0.2692019100D+02  0.3347061376D+00
      0.8564436000D+01  0.6469132659D+00
 S   2 1.00       0.000000000000
      0.5147134000D+01 -0.1572439155D+00
      0.4760360000D+00  0.1055038433D+01
 S   1 1.00       0.000000000000
      0.2873528000D+01  0.1000000000D+01
 S   1 1.00       0.000000000000
      0.1497890000D+00  0.1000000000D+01
 P   3 1.00       0.000000000000
      0.9439681000D+01  0.5693904529D-01
      0.2000405000D+01  0.3133262492D+00
      0.5449160000D+00  0.7603556048D+00
 P   1 1.00       0.000000000000
      0.1208140000D+02  0.1000000000D+01
 P   1 1.00       0.000000000000
      0.1514610000D+00  0.1000000000D+01
 D   2 1.00       0.000000000000
      0.1251463000D+01  0.3572049015D+00
      0.3377940000D+00  0.7736517033D+00
 ****
     51 0
 S   5 1.00       0.000000000000
      0.2804430940D+04  0.2721001118D-02
      0.4212028430D+03  0.2075900853D-01
      0.9581016100D+02  0.1010630415D+00
      0.2692019100D+02  0.3347061376D+00
      0.8564436000D+01  0.6469132659D+00
 S   2 1.00       0.000000000000
      0.5147134000D+01 -0.1572439155D+00
      0.4760360000D+00  0.1055038433D+01
 S   1 1.00       0.000000000000
      0.2873528000D+01  0.1000000000D+01
 S   1 1.00       0.000000000000
      0.1497890000D+00  0.1000000000D+01
 P   3 1.00       0.000000000000
      0.9439681000D+01  0.5693904529D-01
      0.2000405000D+01  0.3133262492D+00
      0.5449160000D+00  0.7603556048D+00
 P   1 1.00       0.000000000000
      0.1208140000D+02  0.1000000000D+01
 P   1 1.00       0.000000000000
      0.1514610000D+00  0.1000000000D+01
 D   2 1.00       0.000000000000
      0.1251463000D+01  0.3572049015D+00
      0.3377940000D+00  0.7736517033D+00
 ****
     52 0
 S   3 1.00       0.000000000000
      0.1301070030D+02  0.3348549824D-01
      0.1962257100D+01  0.2347218877D+00
      0.4445380000D+00  0.8137702573D+00
 S   1 1.00       0.000000000000
      0.1219496000D+00  0.1000000000D+01
 P   3 1.00       0.000000000000
      0.2860673000D+01  0.1288559886D+00
      0.8881900000D+00  0.6197487451D+00
      0.3037760000D+00  0.3731128670D+00
 ****
     53 0
 S   3 1.00       0.000000000000
      0.1301070030D+02  0.3348549824D-01
      0.1962257100D+01  0.2347218877D+00
      0.4445380000D+00  0.8137702573D+00
 S   1 1.00       0.000000000000
      0.1219496000D+00  0.1000000000D+01
 P   3 1.00       0.000000000000
      0.2860673000D+01  0.1288559886D+00
      0.8881900000D+00  0.6197487451D+00
      0.3037760000D+00  0.3731128670D+00
 ****
     54 0
 S   3 1.00       0.000000000000
      0.1301070030D+02  0.3348549824D-01
      0.1962257100D+01  0.2347218877D+00
      0.4445380000D+00  0.8137702573D+00
 S   1 1.00       0.000000000000
      0.1219496000D+00  0.1000000000D+01
 P   3 1.00       0.000000000000
      0.2860673000D+01  0.1288559886D+00
      0.8881900000D+00  0.6197487451D+00
      0.3037760000D+00  0.3731128670D+00
 ****
     55 0
 S   3 1.00       0.000000000000
      0.1301070030D+02  0.3348549824D-01
      0.1962257100D+01  0.2347218877D+00
      0.4445380000D+00  0.8137702573D+00
 S   1 1.00       0.000000000000
      0.1219496000D+00  0.1000000000D+01
 P   3 1.00       0.000000000000
      0.2860673000D+01  0.1288559886D+00
      0.8881900000D+00  0.6197487451D+00
      0.3037760000D+00  0.3731128670D+00
 ****
     56 0
 S   3 1.00       0.000000000000
      0.1301070030D+02  0.3348549824D-01
      0.1962257100D+01  0.2347218877D+00
      0.4445380000D+00  0.8137702573D+00
 S   1 1.00       0.000000000000
      0.1219496000D+00  0.1000000000D+01
 P   3 1.00       0.000000000000
      0.2860673000D+01  0.1288559886D+00
      0.8881900000D+00  0.6197487451D+00
      0.3037760000D+00  0.3731128670D+00
 ****
     57 0
 S   3 1.00       0.000000000000
      0.1301070030D+02  0.3348549824D-01
      0.1962257100D+01  0.2347218877D+00
      0.4445380000D+00  0.8137702573D+00
 S   1 1.00       0.000000000000
      0.1219496000D+00  0.1000000000D+01
 P   3 1.00       0.000000000000
      0.2860673000D+01  0.1288559886D+00
      0.8881900000D+00  0.6197487451D+00
      0.3037760000D+00  0.3731128670D+00
 ****

 There are   874 symmetry adapted cartesian basis functions of A   symmetry.
 There are   829 symmetry adapted basis functions of A   symmetry.
   829 basis functions,  1673 primitive gaussians,   874 cartesian basis functions
   148 alpha electrons      148 beta electrons
       nuclear repulsion energy      4615.4494918417 Hartrees.
 IExCor=  402 DFT=T Ex+Corr=B3LYP ExCW=0 ScaHFX=  0.200000
 ScaDFX=  0.800000  0.720000  1.000000  0.810000 ScalE2=  1.000000  1.000000
 IRadAn=      5 IRanWt=     -1 IRanGd=            0 ICorTp=0 IEmpDi=  4
 NAtoms=   57 NActive=   57 NUniq=   57 SFac= 1.00D+00 NAtFMM=   60 NAOKFM=F Big=F
 Integral buffers will be    131072 words long.
 Raffenetti 2 integral format.
 Two-electron integral symmetry is turned on.
 Using the following non-standard input for PCM:
 Radii=UFF
 --- end of non-standard input.
 ------------------------------------------------------------------------------
 Polarizable Continuum Model (PCM)
 =================================
 Model                : PCM (using non-symmetric T matrix).
 Atomic radii         : UFF (Universal Force Field).
 Polarization charges : Total charges.
 Charge compensation  : None.
 Solution method      : On-the-fly selection.
 Cavity type          : Scaled VdW (van der Waals Surface) (Alpha=1.100).
 Cavity algorithm     : GePol (No added spheres)
                        Default sphere list used, NSphG=   57.
                        Lebedev-Laikov grids with approx.  5.0 points / Ang**2.
                        Smoothing algorithm: Karplus/York (Gamma=1.0000).
                        Polarization charges: spherical gaussians, with
                                              point-specific exponents (IZeta= 3).
                        Self-potential: point-specific (ISelfS= 7).
                        Self-field    : sphere-specific E.n sum rule (ISelfD= 2).
 Solvent              : n,n-DiMethylFormamide, Eps=  37.219000 Eps(inf)=   2.046330
 ------------------------------------------------------------------------------
 GePol: Number of generator spheres                  =      57
 GePol: Total number of spheres                      =      57
 GePol: Number of exposed spheres                    =      57 (100.00%)
 GePol: Number of points                             =    4625
 GePol: Average weight of points                     =       0.13
 GePol: Minimum weight of points                     =   0.84D-10
 GePol: Maximum weight of points                     =    0.21838
 GePol: Number of points with low weight             =     240
 GePol: Fraction of low-weight points (<1% of avg)   =       5.19%
[...]
     18  -0.233539D+02
 Property number 6 -- Beta(w,w,-2w) frequency  2    0.023893:
                 1 
      1   0.605996D+05
      2  -0.186993D+03
      3   0.364279D+04
      4  -0.347261D+03
      5  -0.556193D+01
      6  -0.462139D+02
      7  -0.189215D+03
      8   0.314188D+04
      9  -0.288204D+02
     10  -0.546977D+01
     11  -0.546522D+02
     12  -0.364841D+00
     13  -0.365746D+03
     14  -0.496096D+01
     15  -0.599478D+02
     16  -0.347393D+02
     17  -0.389238D+00
     18  -0.512560D+01

 ----------------------------------------------------------------------

 Electric dipole moment (input orientation):
 (Debye = 10**-18 statcoulomb cm , SI units = C m)
                  (au)            (Debye)         (10**-30 SI)
   Tot        0.146120D+01      0.371401D+01      0.123886D+02
   x          0.145187D+01      0.369028D+01      0.123095D+02
   y         -0.110176D-01     -0.280040D-01     -0.934114D-01
   z          0.164549D+00      0.418243D+00      0.139511D+01

 Dipole polarizability, Alpha (input orientation).
 (esu units = cm**3 , SI units = C**2 m**2 J**-1)
 Alpha(0;0):
               (au)            (10**-24 esu)      (10**-40 SI)
   iso        0.629023D+03      0.932116D+02      0.103712D+03
   aniso      0.623690D+03      0.924213D+02      0.102833D+03
   xx         0.942323D+03      0.139638D+03      0.155368D+03
   yx        -0.465573D+00     -0.689908D-01     -0.767626D-01
   yy         0.709074D+03      0.105074D+03      0.116911D+03
   zx         0.286764D+01      0.424941D+00      0.472811D+00
   zy         0.308687D+01      0.457427D+00      0.508957D+00
   zz         0.235672D+03      0.349230D+02      0.388571D+02
 Alpha(-w;w) w= 1907.0nm:
                  (au)         (10**-24 esu)      (10**-40 SI)
   iso        0.526949D+03      0.780858D+02      0.868821D+02
   aniso      0.557913D+03      0.826741D+02      0.919874D+02
   xx         0.815033D+03      0.120775D+03      0.134381D+03
   yx        -0.474655D+00     -0.703366D-01     -0.782600D-01
   yy         0.586626D+03      0.869290D+02      0.967216D+02
   zx         0.199509D+01      0.295642D+00      0.328946D+00
   zy         0.234743D+01      0.347853D+00      0.387038D+00
   zz         0.179188D+03      0.265529D+02      0.295441D+02

 First dipole hyperpolarizability, Beta (input orientation).
 ||, _|_  parallel and perpendicular components, (z) with respect to z axis,
 vector components x,y,z.  Values do not include the 1/n! factor of 1/2.
 (esu units = statvolt**-1 cm**4 , SI units = C**3 m**3 J**-2)
 Beta(0;0,0):
               (au)            (10**-30 esu)      (10**-50 SI)
   || (z)    -0.210361D+03     -0.181735D+01     -0.674492D+00
   _|_(z)    -0.701202D+02     -0.605784D+00     -0.224831D+00
   x          0.153797D+06      0.132869D+04      0.493128D+03
   y         -0.498948D+03     -0.431052D+01     -0.159981D+01
   z         -0.105180D+04     -0.908676D+01     -0.337246D+01
   ||         0.307603D+05      0.265745D+03      0.986285D+02
   xxx        0.495732D+05      0.428274D+03      0.158950D+03
   xxy       -0.157507D+03     -0.136074D+01     -0.505024D+00
   yxy        0.176655D+04      0.152616D+02      0.566419D+01
   yyy       -0.867331D+01     -0.749307D-01     -0.278098D-01
   xxz       -0.255859D+03     -0.221042D+01     -0.820376D+00
   yxz       -0.182907D+02     -0.158018D+00     -0.586467D-01
   yyz       -0.713884D+02     -0.616740D+00     -0.228897D+00
   zxz       -0.741152D+02     -0.640297D+00     -0.237640D+00
   zyz       -0.135846D+00     -0.117360D-02     -0.435571D-03
   zzz       -0.233539D+02     -0.201759D+00     -0.748809D-01
 Beta(-w;w,0) w= 1907.0nm:
                  (au)         (10**-30 esu)      (10**-50 SI)
   || (z)    -0.186800D+03     -0.161381D+01     -0.598948D+00
   _|_(z)    -0.495490D+02     -0.428065D+00     -0.158872D+00
   x          0.136985D+06      0.118344D+04      0.439223D+03
   y         -0.449095D+03     -0.387984D+01     -0.143996D+01
   z         -0.934000D+03     -0.806903D+01     -0.299474D+01
   ||         0.273977D+05      0.236695D+03      0.878470D+02
   xxx        0.438124D+05      0.378505D+03      0.140479D+03
   yxx       -0.137263D+03     -0.118584D+01     -0.440115D+00
   yyx        0.167684D+04      0.144866D+02      0.537657D+01
   zxx       -0.257554D+03     -0.222506D+01     -0.825810D+00
   zyx       -0.119785D+02     -0.103485D+00     -0.384074D-01
   zzx       -0.191781D+02     -0.165684D+00     -0.614920D-01
   xxy       -0.136137D+03     -0.117612D+01     -0.436505D+00
   yxy        0.199065D+04      0.171976D+02      0.638274D+01
   yyy       -0.124660D+02     -0.107697D+00     -0.399705D-01
   zxy       -0.115881D+02     -0.100112D+00     -0.371557D-01
   zyy       -0.574596D+02     -0.496406D+00     -0.184236D+00
   zzy       -0.372688D+00     -0.321974D-02     -0.119497D-02
   xxz       -0.227304D+03     -0.196373D+01     -0.728820D+00
   yxz       -0.112301D+02     -0.970194D-01     -0.360078D-01
   yyz       -0.495561D+02     -0.428126D+00     -0.158895D+00
   zxz       -0.457617D+02     -0.395345D+00     -0.146728D+00
   zyz       -0.330773D+00     -0.285762D-02     -0.106058D-02
   zzz       -0.903766D+01     -0.780784D-01     -0.289780D-01
 Beta(-2w;w,w) w= 1907.0nm:
                  (au)         (10**-30 esu)      (10**-50 SI)
   || (z)    -0.248979D+03     -0.215099D+01     -0.798317D+00
   _|_(z)    -0.909200D+02     -0.785478D+00     -0.291522D+00
   x          0.191610D+06      0.165536D+04      0.614370D+03
   y         -0.650806D+03     -0.562246D+01     -0.208672D+01
   z         -0.124490D+04     -0.107549D+02     -0.399159D+01
   ||         0.383230D+05      0.331081D+03      0.122877D+03
   xxx        0.605996D+05      0.523534D+03      0.194304D+03
   yxx       -0.189215D+03     -0.163467D+01     -0.606691D+00
   zxx       -0.365746D+03     -0.315976D+01     -0.117271D+01
   xyx       -0.186993D+03     -0.161548D+01     -0.599569D+00
   yyx        0.314188D+04      0.271434D+02      0.100740D+02
   zyx       -0.496096D+01     -0.428588D-01     -0.159066D-01
   xyy        0.364279D+04      0.314709D+02      0.116801D+02
   yyy       -0.288204D+02     -0.248985D+00     -0.924085D-01
   zyy       -0.599478D+02     -0.517902D+00     -0.192214D+00
   xzx       -0.347261D+03     -0.300006D+01     -0.111344D+01
   yzx       -0.546977D+01     -0.472545D-01     -0.175380D-01
   zzx       -0.347393D+02     -0.300121D+00     -0.111387D+00
   xzy       -0.556193D+01     -0.480507D-01     -0.178335D-01
   yzy       -0.546522D+02     -0.472152D+00     -0.175235D+00
   zzy       -0.389238D+00     -0.336271D-02     -0.124804D-02
   xzz       -0.462139D+02     -0.399252D+00     -0.148178D+00
   yzz       -0.364841D+00     -0.315194D-02     -0.116981D-02
   zzz       -0.512560D+01     -0.442812D-01     -0.164345D-01

 ----------------------------------------------------------------------

 Dipole orientation:
    78          0.25883920          0.00766590          1.88787862
     6         -0.08306968         -0.00169595         -1.97000257
     7          0.30300699         -3.82016827          2.56262786
     7          0.33418509          3.83862930          2.54536585
     6          0.21664675          5.62719372          0.75274153
     6          0.16661741         -5.61489440          0.77753151
     6          0.52753135          4.51443390          5.06189103
     6          0.49970175         -4.48715276          5.08112360
     6          0.63481104         -2.33090564          6.81492652
     6          0.64814206          2.36478473          6.80486393
     6          0.85377095          2.30424795          9.44810465
     6          0.59110554          7.07871946          5.72821506
     6          0.46705974          8.92655296          3.86593211
     6          0.28028158          8.19265597          1.32955972
     6          0.84138349         -2.26005396          9.45781268
     6          0.95036977          0.02464707         10.77766741
     6          0.56046736         -7.04937933          5.75627933
     6          0.42198722         -8.90365590          3.90136471
     1          0.72124773         -7.56038344          7.74196646
     6          0.21836947         -8.17825234          1.36376951
     6          0.54356897          0.01461022          5.56506532
     9          0.94307780         -4.40361566         10.80399494
     9          0.96656439          4.45300310         10.78519693
     1          0.01809069         -4.93810922         -1.16310824
     6          0.00994597        -10.13903014         -0.69023291
     1          0.47779302        -10.89773942          4.42798041
     1          0.06157756          4.94390023         -1.18518348
     6          0.19856756         10.14666802         -0.73992929
     1          0.73610708          7.59613095          7.71341754
     1          0.50881503         10.92240029          4.38666226
     6         -0.37086952         -0.01085811         -4.28918929
     6         -0.73628579         -0.02133745         -6.96815987
     6         -0.97645111          2.24550999         -8.36314780
     6         -0.89876570         -2.29920219         -8.35648058
     6         -1.36214073          2.25006603        -10.96223550
     6         -1.28322129         -2.32446908        -10.95567155
     6         -1.53361219         -0.04281942        -12.35061976
     7         -1.92534421         -0.05320957        -14.92372114
     1          1.11147703          0.02855709         12.83128911
     9         -1.49616715         11.96910529         -0.22360508
     9         -0.41821300          9.13798661         -2.98518998
     9          2.44914358         11.29987093         -1.02214114
     9          0.22435079         -9.12529225         -3.00660434
     9         -2.22638487        -11.34903090         -0.59795194
     9          1.81222996        -11.91654257         -0.45939478
     1         -0.86097143          4.05185254         -7.36718219
     1         -1.53550263          4.06197138        -11.92430772
     1         -1.39293987         -4.14394594        -11.91291429
     1         -0.72072353         -4.09762378         -7.35540859
     6         -2.18200710          2.31182762        -16.28679425
     6         -2.09975378         -2.42959638        -16.28008213
     1         -0.47622023          3.50585500        -16.11988093
     1         -3.80534019          3.43953959        -15.61021848
     1         -2.48198410          1.91588754        -18.29896610
     1         -3.67952052         -3.61302936        -15.59586100
     1         -0.35152046         -3.56092726        -16.11478861
     1         -2.41916957         -2.05014886        -18.29244989

 Electric dipole moment (dipole orientation):
 (Debye = 10**-18 statcoulomb cm , SI units = C m)
                  (au)            (Debye)         (10**-30 SI)
   Tot        0.146120D+01      0.371401D+01      0.123886D+02
   x          0.000000D+00      0.000000D+00      0.000000D+00
   y          0.000000D+00      0.000000D+00      0.000000D+00
   z          0.146120D+01      0.371401D+01      0.123886D+02

 Dipole polarizability, Alpha (dipole orientation).
 (esu units = cm**3 , SI units = C**2 m**2 J**-1)
 Alpha(0;0):
               (au)            (10**-24 esu)      (10**-40 SI)
   iso        0.629023D+03      0.932116D+02      0.103712D+03
   aniso      0.623690D+03      0.924213D+02      0.102833D+03
   xx         0.243979D+03      0.361540D+02      0.402267D+02
   yx         0.587586D+00      0.870713D-01      0.968799D-01
   yy         0.709098D+03      0.105078D+03      0.116915D+03
   zx         0.763089D+02      0.113078D+02      0.125816D+02
   zy         0.106714D+01      0.158134D+00      0.175948D+00
   zz         0.933992D+03      0.138403D+03      0.153994D+03
 Alpha(-w;w) w= 1907.0nm:
                  (au)         (10**-24 esu)      (10**-40 SI)
   iso        0.526949D+03      0.780858D+02      0.868821D+02
   aniso      0.557913D+03      0.826741D+02      0.919874D+02
   xx         0.186798D+03      0.276806D+02      0.307989D+02
   yx         0.828436D+00      0.122762D+00      0.136591D+00
   yy         0.586642D+03      0.869314D+02      0.967243D+02
   zx         0.692302D+02      0.102589D+02      0.114145D+02
   zy         0.991313D+00      0.146897D+00      0.163445D+00
   zz         0.807406D+03      0.119645D+03      0.133123D+03

 First dipole hyperpolarizability, Beta (dipole orientation).
 ||, _|_  parallel and perpendicular components, (z) with respect to z axis,
 vector components x,y,z.  Values do not include the 1/n! factor of 1/2.
 (esu units = statvolt**-1 cm**4 , SI units = C**3 m**3 J**-2)
 Beta(0;0,0):
               (au)            (10**-30 esu)      (10**-50 SI)
   || (z)     0.305399D+05      0.263841D+03      0.979220D+02
   _|_(z)     0.101800D+05      0.879470D+02      0.326407D+02
   x          0.183690D+05      0.158694D+03      0.588976D+02
   y          0.528759D+03      0.456807D+01      0.169539D+01
   z          0.152699D+06      0.131920D+04      0.489610D+03
   ||         0.307603D+05      0.265745D+03      0.986285D+02
   xxx        0.788263D+02      0.680998D+00      0.252746D+00
   xxy        0.965379D+01      0.834013D-01      0.309535D-01
   yxy        0.270271D+03      0.233493D+01      0.866587D+00
   yyy        0.253834D+02      0.219292D+00      0.813882D-01
   xxz        0.608372D+03      0.525586D+01      0.195066D+01
   yxz        0.493809D+02      0.426612D+00      0.158333D+00
   yyz        0.174673D+04      0.150904D+02      0.560065D+01
   zxz        0.577389D+04      0.498819D+02      0.185132D+02
   zyz        0.141216D+03      0.121999D+01      0.452789D+00
   zzz        0.485447D+05      0.419389D+03      0.155652D+03
 Beta(-w;w,0) w= 1907.0nm:
                  (au)         (10**-30 esu)      (10**-50 SI)
   || (z)     0.272015D+05      0.235000D+03      0.872180D+02
   _|_(z)     0.897348D+04      0.775239D+02      0.287722D+02
   x          0.163582D+05      0.141322D+03      0.524501D+02
   y          0.466291D+03      0.402839D+01      0.149510D+01
   z          0.136008D+06      0.117500D+04      0.436090D+03
   ||         0.273977D+05      0.236695D+03      0.878470D+02
   xxx        0.686157D+02      0.592786D+00      0.220007D+00
   yxx        0.779564D+01      0.673483D-01      0.249956D-01
   yyx        0.238387D+03      0.205948D+01      0.764356D+00
   zxx        0.561047D+03      0.484701D+01      0.179892D+01
   zyx        0.417567D+02      0.360745D+00      0.133887D+00
   zzx        0.509887D+04      0.440503D+02      0.163488D+02
   xxy        0.828067D+01      0.715385D-01      0.265508D-01
   yxy        0.281586D+03      0.243268D+01      0.902865D+00
   yyy        0.243827D+02      0.210648D+00      0.781797D-01
   zxy        0.421241D+02      0.363919D+00      0.135065D+00
   zyy        0.197110D+04      0.170287D+02      0.632005D+01
   zzy        0.122392D+03      0.105737D+01      0.392432D+00
   xxz        0.590858D+03      0.510455D+01      0.189450D+01
   yxz        0.400889D+02      0.346337D+00      0.128540D+00
   yyz        0.166019D+04      0.143427D+02      0.532317D+01
   zxz        0.512594D+04      0.442841D+02      0.164356D+02
   zyz        0.123439D+03      0.106642D+01      0.395791D+00
   zzz        0.428974D+05      0.370601D+03      0.137545D+03
 Beta(-2w;w,w) w= 1907.0nm:
                  (au)         (10**-30 esu)      (10**-50 SI)
   || (z)     0.380500D+05      0.328723D+03      0.122002D+03
   _|_(z)     0.128446D+05      0.110967D+03      0.411843D+02
   x          0.228199D+05      0.197146D+03      0.731689D+02
   y          0.630071D+03      0.544332D+01      0.202023D+01
   z          0.190250D+06      0.164361D+04      0.610011D+03
   ||         0.383230D+05      0.331081D+03      0.122877D+03
   xxx        0.922180D+02      0.796691D+00      0.295684D+00
   yxx        0.934048D+01      0.806944D-01      0.299489D-01
   zxx        0.795902D+03      0.687597D+01      0.255195D+01
   xyx        0.981484D+01      0.847926D-01      0.314699D-01
   yyx        0.408453D+03      0.352872D+01      0.130965D+01
   zyx        0.538143D+02      0.464914D+00      0.172548D+00
   xyy        0.470115D+03      0.406143D+01      0.150736D+01
   yyy        0.367338D+02      0.317351D+00      0.117782D+00
   zyy        0.361240D+04      0.312083D+02      0.115827D+02
   xzx        0.809353D+03      0.699218D+01      0.259508D+01
   yzx        0.500273D+02      0.432197D+00      0.160406D+00
   zzx        0.707972D+04      0.611633D+02      0.227001D+02
   xzy        0.494389D+02      0.427113D+00      0.158519D+00
   yzy        0.311529D+04      0.269137D+02      0.998875D+01
   zzy        0.163168D+03      0.140965D+01      0.523177D+00
   xzz        0.709681D+04      0.613109D+02      0.227550D+02
   yzz        0.164562D+03      0.142169D+01      0.527646D+00
   zzz        0.593308D+05      0.512572D+03      0.190236D+03

 ----------------------------------------------------------------------
 1\1\GINC-NEQC29\SP\RB3LYP\Gen\C28H17F8N3Pt1\GUEST\19-May-2023\0\\#p B3
 LYP/gen gfinput pseudo=read Integral(Grid=UltraFine,Acc2E=12) scf=maxc
 ycle=200 Polar=(DCSHG) CPHF=RdFreq scrf=(iefpcm,read,solvent=n,n-DiMet
 hylFormamide)\\Primeira Hiperpolarizabilidade\\0,1\Pt,0,1.008098,-0.00
 2554,-0.023564\C,0,-1.040778,0.006667,-0.073725\N,0,1.351872,-2.030588
 ,-0.021851\N,0,1.371945,2.022246,-0.008714\C,0,0.428756,2.975399,-0.04
 6602\C,0,0.398749,-2.973631,-0.063676\C,0,2.709059,2.370496,0.042286\C
 ,0,2.685437,-2.392871,0.022148\C,0,3.612802,-1.258329,0.063032\C,0,3.6
 25038,1.226484,0.074159\C,0,5.026887,1.184637,0.123314\C,0,3.072337,3.
 724956,0.058798\C,0,2.092345,4.709726,0.020417\C,0,0.74498,4.330839,-0
 .035451\C,0,5.014989,-1.230647,0.112194\C,0,5.723602,-0.026575,0.14265
 8\C,0,3.034924,-3.751151,0.020208\C,0,2.044754,-4.725434,-0.024916\H,0
 ,4.086755,-4.028899,0.051962\C,0,0.700942,-4.332187,-0.06618\C,0,2.958
 548,-0.012537,0.045884\F,0,5.721231,-2.369922,0.130392\F,0,5.744306,2.
 316718,0.152261\H,0,-0.628075,-2.608296,-0.098527\C,0,-0.398457,-5.362
 28,-0.086817\H,0,2.317868,-5.782506,-0.030833\H,0,-0.601877,2.621014,-
 0.083278\C,0,-0.341058,5.372771,-0.108014\H,0,4.126637,3.99134,0.10292
 3\H,0,2.375744,5.7639,0.037457\C,0,-2.277388,0.010047,-0.060642\C,0,-3
 .707803,0.013889,-0.028194\C,0,-4.447523,1.218102,0.023999\C,0,-4.4555
 8,-1.186483,-0.034584\C,0,-5.837091,1.229509,0.071927\C,0,-5.845235,-1
 .190852,0.01257\C,0,-6.585491,0.021157,0.070201\N,0,-7.961809,0.02453,
 0.122795\H,0,6.813007,-0.032126,0.180343\F,0,-0.164121,6.329015,0.8211
 11\F,0,-1.561973,4.845788,0.078463\F,0,-0.351158,5.992134,-1.303574\F,
 0,-1.600001,-4.815854,-0.333542\F,0,-0.487575,-6.010889,1.089708\F,0,-
 0.175967,-6.29735,-1.027787\H,0,-3.910527,2.170366,0.029839\H,0,-6.346
 824,2.1915,0.112978\H,0,-6.361574,-2.1502,0.005956\H,0,-3.925014,-2.14
 1478,-0.075718\C,0,-8.685382,1.280514,0.185956\C,0,-8.693844,-1.228145
 ,0.124189\H,0,-8.491668,1.917746,-0.696229\H,0,-8.422404,1.868759,1.08
 4316\H,0,-9.762669,1.077962,0.222194\H,0,-8.432484,-1.862718,0.990876\
 H,0,-8.506737,-1.821219,-0.789689\H,0,-9.76963,-1.020469,0.17373\\Vers
 ion=EM64L-G09RevD.01\State=1-A\HF=-2159.478564\RMSD=4.166e-09\Dipole=1
 .4518684,-0.0110176,0.1645494\Polar=942.3230954,-0.465573,709.0740758,
 2.8676447,3.0868727,235.6720325\HyperPolar=49573.1903289,-157.506864,1
 766.5489853,-8.6733147,-255.8588779,-18.2907318,-71.3883756,-74.115157
 ,-0.1358458,-23.3538525\Quadrupole=34.0705935,-5.1304876,-28.9401059,-
 0.1170155,-0.9041149,0.7399704\PG=C01 [X(C28H17F8N3Pt1)]\\@


 MODELS ARE TO BE USED, NOT BELIEVED.

    -- PARAPHRASED BY H. THIEL IN "PRINCIPLES OF ECONOMETRICS"
 Job cpu time:       1 days 12 hours  3 minutes 50.1 seconds.
 File lengths (MBytes):  RWF=   5150 Int=      0 D2E=      0 Chk=     32 Scr=      1
 Normal termination of Gaussian 09 at Fri May 19 23:34:30 2023.
