 Entering Gaussian System, Link 0=g16
 Input=/home/nqtcm/Documentos/g16/Suttgart-RSC-PtBS.com
 Output=/home/nqtcm/Documentos/g16/Suttgart-RSC-PtBS.log
 Initial command:
 /home/scr/programas/g16/l1.exe "/home/scr/nqtcm/Gau-6404.inp" -scrdir="/home/scr/nqtcm/"
 Entering Link 1 = /home/scr/programas/g16/l1.exe PID=      6406.
  
 Copyright (c) 1988-2019, Gaussian, Inc.  All Rights Reserved.
  
 This is part of the Gaussian(R) 16 program.  It is based on
 the Gaussian(R) 09 system (copyright 2009, Gaussian, Inc.),
 the Gaussian(R) 03 system (copyright 2003, Gaussian, Inc.),
 the Gaussian(R) 98 system (copyright 1998, Gaussian, Inc.),
 the Gaussian(R) 94 system (copyright 1995, Gaussian, Inc.),
 the Gaussian 92(TM) system (copyright 1992, Gaussian, Inc.),
 the Gaussian 90(TM) system (copyright 1990, Gaussian, Inc.),
 the Gaussian 88(TM) system (copyright 1988, Gaussian, Inc.),
 the Gaussian 86(TM) system (copyright 1986, Carnegie Mellon
 University), and the Gaussian 82(TM) system (copyright 1983,
 Carnegie Mellon University). Gaussian is a federally registered
 trademark of Gaussian, Inc.
  
 This software contains proprietary and confidential information,
 including trade secrets, belonging to Gaussian, Inc.
  
 This software is provided under written license and may be
 used, copied, transmitted, or stored only in accord with that
 written license.
  
 The following legend is applicable only to US Government
 contracts under FAR:
  
                    RESTRICTED RIGHTS LEGEND
  
 Use, reproduction and disclosure by the US Government is
 subject to restrictions as set forth in subparagraphs (a)
 and (c) of the Commercial Computer Software - Restricted
 Rights clause in FAR 52.227-19.
  
 Gaussian, Inc.
 340 Quinnipiac St., Bldg. 40, Wallingford CT 06492
  
  
 ---------------------------------------------------------------
 Warning -- This program may not be used in any manner that
 competes with the business of Gaussian, Inc. or will provide
 assistance to any competitor of Gaussian, Inc.  The licensee
 of this program is prohibited from giving any competitor of
 Gaussian, Inc. access to this program.  By using this program,
 the user acknowledges that Gaussian, Inc. is engaged in the
 business of creating and licensing software in the field of
 computational chemistry and represents and warrants to the
 licensee that it is not a competitor of Gaussian, Inc. and that
 it will not use this program in any manner prohibited above.
 ---------------------------------------------------------------
  

 Cite this work as:
 Gaussian 16, Revision C.01,
 M. J. Frisch, G. W. Trucks, H. B. Schlegel, G. E. Scuseria, 
 M. A. Robb, J. R. Cheeseman, G. Scalmani, V. Barone, 
 G. A. Petersson, H. Nakatsuji, X. Li, M. Caricato, A. V. Marenich, 
 J. Bloino, B. G. Janesko, R. Gomperts, B. Mennucci, H. P. Hratchian, 
 J. V. Ortiz, A. F. Izmaylov, J. L. Sonnenberg, D. Williams-Young, 
 F. Ding, F. Lipparini, F. Egidi, J. Goings, B. Peng, A. Petrone, 
 T. Henderson, D. Ranasinghe, V. G. Zakrzewski, J. Gao, N. Rega, 
 G. Zheng, W. Liang, M. Hada, M. Ehara, K. Toyota, R. Fukuda, 
 J. Hasegawa, M. Ishida, T. Nakajima, Y. Honda, O. Kitao, H. Nakai, 
 T. Vreven, K. Throssell, J. A. Montgomery, Jr., J. E. Peralta, 
 F. Ogliaro, M. J. Bearpark, J. J. Heyd, E. N. Brothers, K. N. Kudin, 
 V. N. Staroverov, T. A. Keith, R. Kobayashi, J. Normand, 
 K. Raghavachari, A. P. Rendell, J. C. Burant, S. S. Iyengar, 
 J. Tomasi, M. Cossi, J. M. Millam, M. Klene, C. Adamo, R. Cammi, 
 J. W. Ochterski, R. L. Martin, K. Morokuma, O. Farkas, 
 J. B. Foresman, and D. J. Fox, Gaussian, Inc., Wallingford CT, 2019.
 
 ******************************************
 Gaussian 16:  EM64L-G16RevC.01  3-Jul-2019
                24-Jul-2024 
 ******************************************
 %chk=OPT_B3LYP_LANL2TZF_def2SVP_ONL_B3LYP_StuttgartRSC_def2SVP_IEFPCM.chk
 %mem=30Gb
 %nproc=8
 Will use up to    8 processors via shared memory.
 ----------------------------------------------------------------------
 #p B3LYP/gen gfinput pseudo=read Integral(Grid=UltraFine,Acc2E=12) scf
 =maxcycle=200 Polar=(DCSHG) CPHF=RdFreq scrf=(iefpcm,read,solvent=n,n-
 DiMethylFormamide)
 ----------------------------------------------------------------------
 1/38=1,40=2,83=1,172=1/1;
 2/12=2,17=6,18=5,40=1/2;
 3/5=7,11=2,16=1,17=8,24=10,25=1,27=12,30=1,70=2203,72=148,74=-5,75=-5/1,2,3;
 4//1;
 5/5=2,7=200,38=5,53=148,87=12,98=1/2;
 8/6=4,10=90,11=11,87=12/1;
 10/6=20001,13=10,72=3,87=12/2;
 6/7=2,8=2,9=2,10=2,28=1,87=12/1;
 99/5=1,9=1/99;
 Leave Link    1 at Wed Jul 24 18:37:37 2024, MaxMem=  4026531840 cpu:               0.5 elap:               0.1
 (Enter /home/scr/programas/g16/l101.exe)
 ------------------------------
 Primeira Hiperpolarizabilidade
 ------------------------------
 Symbolic Z-matrix:
 Charge =  0 Multiplicity = 1
 Pt                    1.0081   -0.00255  -0.02356 
 C                    -1.04078   0.00667  -0.07373 
 N                     1.35187  -2.03059  -0.02185 
 N                     1.37195   2.02225  -0.00871 
 C                     0.42876   2.9754   -0.0466 
 C                     0.39875  -2.97363  -0.06368 
 C                     2.70906   2.3705    0.04229 
 C                     2.68544  -2.39287   0.02215 
 C                     3.6128   -1.25833   0.06303 
 C                     3.62504   1.22648   0.07416 
 C                     5.02689   1.18464   0.12331 
 C                     3.07234   3.72496   0.0588 
 C                     2.09234   4.70973   0.02042 
 C                     0.74498   4.33084  -0.03545 
 C                     5.01499  -1.23065   0.11219 
 C                     5.7236   -0.02658   0.14266 
 C                     3.03492  -3.75115   0.02021 
 C                     2.04475  -4.72543  -0.02492 
 H                     4.08676  -4.0289    0.05196 
 C                     0.70094  -4.33219  -0.06618 
 C                     2.95855  -0.01254   0.04588 
 F                     5.72123  -2.36992   0.13039 
 F                     5.74431   2.31672   0.15226 
 H                    -0.62808  -2.6083   -0.09853 
 C                    -0.39846  -5.36228  -0.08682 
 H                     2.31787  -5.78251  -0.03083 
 H                    -0.60188   2.62101  -0.08328 
 C                    -0.34106   5.37277  -0.10801 
 H                     4.12664   3.99134   0.10292 
 H                     2.37574   5.7639    0.03746 
 C                    -2.27739   0.01005  -0.06064 
 C                    -3.7078    0.01389  -0.02819 
 C                    -4.44752   1.2181    0.024 
 C                    -4.45558  -1.18648  -0.03458 
 C                    -5.83709   1.22951   0.07193 
 C                    -5.84524  -1.19085   0.01257 
 C                    -6.58549   0.02116   0.0702 
 N                    -7.96181   0.02453   0.1228 
 H                     6.81301  -0.03213   0.18034 
 F                    -0.16412   6.32902   0.82111 
 F                    -1.56197   4.84579   0.07846 
 F                    -0.35116   5.99213  -1.30357 
 F                    -1.6      -4.81585  -0.33354 
 F                    -0.48758  -6.01089   1.08971 
 F                    -0.17597  -6.29735  -1.02779 
 H                    -3.91053   2.17037   0.02984 
 H                    -6.34682   2.1915    0.11298 
 H                    -6.36157  -2.1502    0.00596 
 H                    -3.92501  -2.14148  -0.07572 
 C                    -8.68538   1.28051   0.18596 
 C                    -8.69384  -1.22815   0.12419 
 H                    -8.49167   1.91775  -0.69623 
 H                    -8.4224    1.86876   1.08432 
 H                    -9.76267   1.07796   0.22219 
 H                    -8.43248  -1.86272   0.99088 
 H                    -8.50674  -1.82122  -0.78969 
 H                    -9.76963  -1.02047   0.17373 
 
 ITRead=  0  0  0  0  0  0  0  0  0  0  0  0  0  0  0  0  0  0  0  0
 ITRead=  0  0  0  0  0  0  0  0  0  0  0  0  0  0  0  0  0  0  0  0
 ITRead=  0  0  0  0  0  0  0  0  0  0  0  0  0  0  0  0  0
 MicOpt= -1 -1 -1 -1 -1 -1 -1 -1 -1 -1 -1 -1 -1 -1 -1 -1 -1 -1 -1 -1
 MicOpt= -1 -1 -1 -1 -1 -1 -1 -1 -1 -1 -1 -1 -1 -1 -1 -1 -1 -1 -1 -1
 MicOpt= -1 -1 -1 -1 -1 -1 -1 -1 -1 -1 -1 -1 -1 -1 -1 -1 -1
 NAtoms=     57 NQM=       57 NQMF=       0 NMMI=      0 NMMIF=      0
                NMic=       0 NMicF=      0.
                    Isotopes and Nuclear Properties:
 (Nuclear quadrupole moments (NQMom) in fm**2, nuclear magnetic moments (NMagM)
  in nuclear magnetons)

  Atom         1           2           3           4           5           6           7           8           9          10
 IAtWgt=         195          12          14          14          12          12          12          12          12          12
 AtmWgt= 194.9648000  12.0000000  14.0030740  14.0030740  12.0000000  12.0000000  12.0000000  12.0000000  12.0000000  12.0000000
 NucSpn=           1           0           2           2           0           0           0           0           0           0
 AtZEff=  -0.0000000  -0.0000000  -0.0000000  -0.0000000  -0.0000000  -0.0000000  -0.0000000  -0.0000000  -0.0000000  -0.0000000
 NQMom=    0.0000000   0.0000000   2.0440000   2.0440000   0.0000000   0.0000000   0.0000000   0.0000000   0.0000000   0.0000000
 NMagM=    0.6095000   0.0000000   0.4037610   0.4037610   0.0000000   0.0000000   0.0000000   0.0000000   0.0000000   0.0000000
 AtZNuc=  78.0000000   6.0000000   7.0000000   7.0000000   6.0000000   6.0000000   6.0000000   6.0000000   6.0000000   6.0000000

  Atom        11          12          13          14          15          16          17          18          19          20
 IAtWgt=          12          12          12          12          12          12          12          12           1          12
 AtmWgt=  12.0000000  12.0000000  12.0000000  12.0000000  12.0000000  12.0000000  12.0000000  12.0000000   1.0078250  12.0000000
 NucSpn=           0           0           0           0           0           0           0           0           1           0
 AtZEff=  -0.0000000  -0.0000000  -0.0000000  -0.0000000  -0.0000000  -0.0000000  -0.0000000  -0.0000000  -0.0000000  -0.0000000
 NQMom=    0.0000000   0.0000000   0.0000000   0.0000000   0.0000000   0.0000000   0.0000000   0.0000000   0.0000000   0.0000000
 NMagM=    0.0000000   0.0000000   0.0000000   0.0000000   0.0000000   0.0000000   0.0000000   0.0000000   2.7928460   0.0000000
 AtZNuc=   6.0000000   6.0000000   6.0000000   6.0000000   6.0000000   6.0000000   6.0000000   6.0000000   1.0000000   6.0000000

  Atom        21          22          23          24          25          26          27          28          29          30
 IAtWgt=          12          19          19           1          12           1           1          12           1           1
 AtmWgt=  12.0000000  18.9984033  18.9984033   1.0078250  12.0000000   1.0078250   1.0078250  12.0000000   1.0078250   1.0078250
 NucSpn=           0           1           1           1           0           1           1           0           1           1
 AtZEff=  -0.0000000  -0.0000000  -0.0000000  -0.0000000  -0.0000000  -0.0000000  -0.0000000  -0.0000000  -0.0000000  -0.0000000
 NQMom=    0.0000000   0.0000000   0.0000000   0.0000000   0.0000000   0.0000000   0.0000000   0.0000000   0.0000000   0.0000000
 NMagM=    0.0000000   2.6288670   2.6288670   2.7928460   0.0000000   2.7928460   2.7928460   0.0000000   2.7928460   2.7928460
 AtZNuc=   6.0000000   9.0000000   9.0000000   1.0000000   6.0000000   1.0000000   1.0000000   6.0000000   1.0000000   1.0000000

  Atom        31          32          33          34          35          36          37          38          39          40
 IAtWgt=          12          12          12          12          12          12          12          14           1          19
 AtmWgt=  12.0000000  12.0000000  12.0000000  12.0000000  12.0000000  12.0000000  12.0000000  14.0030740   1.0078250  18.9984033
 NucSpn=           0           0           0           0           0           0           0           2           1           1
 AtZEff=  -0.0000000  -0.0000000  -0.0000000  -0.0000000  -0.0000000  -0.0000000  -0.0000000  -0.0000000  -0.0000000  -0.0000000
 NQMom=    0.0000000   0.0000000   0.0000000   0.0000000   0.0000000   0.0000000   0.0000000   2.0440000   0.0000000   0.0000000
 NMagM=    0.0000000   0.0000000   0.0000000   0.0000000   0.0000000   0.0000000   0.0000000   0.4037610   2.7928460   2.6288670
 AtZNuc=   6.0000000   6.0000000   6.0000000   6.0000000   6.0000000   6.0000000   6.0000000   7.0000000   1.0000000   9.0000000

  Atom        41          42          43          44          45          46          47          48          49          50
 IAtWgt=          19          19          19          19          19           1           1           1           1          12
 AtmWgt=  18.9984033  18.9984033  18.9984033  18.9984033  18.9984033   1.0078250   1.0078250   1.0078250   1.0078250  12.0000000
 NucSpn=           1           1           1           1           1           1           1           1           1           0
 AtZEff=  -0.0000000  -0.0000000  -0.0000000  -0.0000000  -0.0000000  -0.0000000  -0.0000000  -0.0000000  -0.0000000  -0.0000000
 NQMom=    0.0000000   0.0000000   0.0000000   0.0000000   0.0000000   0.0000000   0.0000000   0.0000000   0.0000000   0.0000000
 NMagM=    2.6288670   2.6288670   2.6288670   2.6288670   2.6288670   2.7928460   2.7928460   2.7928460   2.7928460   0.0000000
 AtZNuc=   9.0000000   9.0000000   9.0000000   9.0000000   9.0000000   1.0000000   1.0000000   1.0000000   1.0000000   6.0000000

  Atom        51          52          53          54          55          56          57
 IAtWgt=          12           1           1           1           1           1           1
 AtmWgt=  12.0000000   1.0078250   1.0078250   1.0078250   1.0078250   1.0078250   1.0078250
 NucSpn=           0           1           1           1           1           1           1
 AtZEff=  -0.0000000  -0.0000000  -0.0000000  -0.0000000  -0.0000000  -0.0000000  -0.0000000
 NQMom=    0.0000000   0.0000000   0.0000000   0.0000000   0.0000000   0.0000000   0.0000000
 NMagM=    0.0000000   2.7928460   2.7928460   2.7928460   2.7928460   2.7928460   2.7928460
 AtZNuc=   6.0000000   1.0000000   1.0000000   1.0000000   1.0000000   1.0000000   1.0000000
 Using perturbation frequencies:    0.000000    0.023893
 Leave Link  101 at Wed Jul 24 18:37:37 2024, MaxMem=  4026531840 cpu:               0.9 elap:               0.1
 (Enter /home/scr/programas/g16/l202.exe)
 Stoichiometry    C28H17F8N3Pt
 Framework group  C1[X(C28H17F8N3Pt)]
 Deg. of freedom   165
 Full point group                 C1      NOp   1
 Largest Abelian subgroup         C1      NOp   1
 Largest concise Abelian subgroup C1      NOp   1
                         Standard orientation:                         
 ---------------------------------------------------------------------
 Center     Atomic      Atomic             Coordinates (Angstroms)
 Number     Number       Type             X           Y           Z
 ---------------------------------------------------------------------
      1         78           0       -1.008098   -0.002554    0.023564
      2          6           0        1.040778    0.006667    0.073725
      3          7           0       -1.351872   -2.030588    0.021851
      4          7           0       -1.371945    2.022246    0.008714
      5          6           0       -0.428755    2.975399    0.046602
      6          6           0       -0.398749   -2.973631    0.063676
      7          6           0       -2.709059    2.370497   -0.042286
      8          6           0       -2.685437   -2.392870   -0.022148
      9          6           0       -3.612802   -1.258328   -0.063032
     10          6           0       -3.625038    1.226485   -0.074159
     11          6           0       -5.026887    1.184638   -0.123314
     12          6           0       -3.072336    3.724957   -0.058798
     13          6           0       -2.092344    4.709726   -0.020417
     14          6           0       -0.744979    4.330839    0.035451
     15          6           0       -5.014989   -1.230646   -0.112194
     16          6           0       -5.723602   -0.026574   -0.142658
     17          6           0       -3.034925   -3.751150   -0.020208
     18          6           0       -2.044755   -4.725434    0.024916
     19          1           0       -4.086756   -4.028898   -0.051962
     20          6           0       -0.700943   -4.332187    0.066180
     21          6           0       -2.958548   -0.012536   -0.045884
     22          9           0       -5.721231   -2.369921   -0.130392
     23          9           0       -5.744306    2.316719   -0.152261
     24          1           0        0.628075   -2.608296    0.098527
     25          6           0        0.398456   -5.362280    0.086817
     26          1           0       -2.317869   -5.782506    0.030833
     27          1           0        0.601877    2.621014    0.083278
     28          6           0        0.341059    5.372771    0.108014
     29          1           0       -4.126636    3.991341   -0.102923
     30          1           0       -2.375743    5.763900   -0.037457
     31          6           0        2.277388    0.010047    0.060642
     32          6           0        3.707803    0.013889    0.028194
     33          6           0        4.447523    1.218101   -0.023999
     34          6           0        4.455580   -1.186484    0.034584
     35          6           0        5.837091    1.229508   -0.071927
     36          6           0        5.845235   -1.190853   -0.012570
     37          6           0        6.585491    0.021156   -0.070201
     38          7           0        7.961809    0.024529   -0.122795
     39          1           0       -6.813007   -0.032125   -0.180343
     40          9           0        0.164122    6.329015   -0.821111
     41          9           0        1.561974    4.845788   -0.078463
     42          9           0        0.351159    5.992134    1.303574
     43          9           0        1.600000   -4.815854    0.333542
     44          9           0        0.487574   -6.010889   -1.089708
     45          9           0        0.175966   -6.297350    1.027787
     46          1           0        3.910527    2.170366   -0.029839
     47          1           0        6.346824    2.191499   -0.112978
     48          1           0        6.361574   -2.150201   -0.005956
     49          1           0        3.925014   -2.141478    0.075718
     50          6           0        8.685382    1.280513   -0.185956
     51          6           0        8.693844   -1.228146   -0.124189
     52          1           0        8.491668    1.917745    0.696229
     53          1           0        8.422404    1.868758   -1.084316
     54          1           0        9.762669    1.077961   -0.222194
     55          1           0        8.432484   -1.862719   -0.990876
     56          1           0        8.506737   -1.821220    0.789689
     57          1           0        9.769630   -1.020470   -0.173730
 ---------------------------------------------------------------------
 Rotational constants (GHZ):           0.0734786           0.0557567           0.0320899
 Leave Link  202 at Wed Jul 24 18:37:37 2024, MaxMem=  4026531840 cpu:               0.0 elap:               0.0
 (Enter /home/scr/programas/g16/l301.exe)
 General basis read from cards:  (5D, 7F)
 Centers:      19     24     26     27     29     30     39     46     47     48
 Centers:      49     52     53     54     55     56     57
 S 3 1.00
     Exponent=  1.3010701000D+01 Coefficients=  1.9682158000D-02
     Exponent=  1.9622572000D+00 Coefficients=  1.3796524000D-01
     Exponent=  4.4453796000D-01 Coefficients=  4.7831935000D-01
 S 1 1.00
     Exponent=  1.2194962000D-01 Coefficients=  1.0000000000D+00
 P 1 1.00
     Exponent=  8.0000000000D-01 Coefficients=  1.0000000000D+00
 ****
 Centers:       2      5      6      7      8      9     10     11     12     13
 Centers:      14     15     16     17     18     20     21     25     28     31
 Centers:      32     33     34     35     36     37     50     51
 S 5 1.00
     Exponent=  1.2384016938D+03 Coefficients=  5.4568832082D-03
     Exponent=  1.8629004992D+02 Coefficients=  4.0638409211D-02
     Exponent=  4.2251176346D+01 Coefficients=  1.8025593888D-01
     Exponent=  1.1676557932D+01 Coefficients=  4.6315121755D-01
     Exponent=  3.5930506482D+00 Coefficients=  4.4087173314D-01
 S 1 1.00
     Exponent=  4.0245147363D-01 Coefficients=  1.0000000000D+00
 S 1 1.00
     Exponent=  1.3090182668D-01 Coefficients=  1.0000000000D+00
 P 3 1.00
     Exponent=  9.4680970621D+00 Coefficients=  3.8387871728D-02
     Exponent=  2.0103545142D+00 Coefficients=  2.1117025112D-01
     Exponent=  5.4771004707D-01 Coefficients=  5.1328172114D-01
 P 1 1.00
     Exponent=  1.5268613795D-01 Coefficients=  1.0000000000D+00
 D 1 1.00
     Exponent=  8.0000000000D-01 Coefficients=  1.0000000000D+00
 ****
 Centers:       3      4     38
 S 5 1.00
     Exponent=  1.7128415853D+03 Coefficients= -5.3934125305D-03
     Exponent=  2.5764812677D+02 Coefficients= -4.0221581118D-02
     Exponent=  5.8458245853D+01 Coefficients= -1.7931144990D-01
     Exponent=  1.6198367905D+01 Coefficients= -4.6376317823D-01
     Exponent=  5.0052600809D+00 Coefficients= -4.4171422662D-01
 S 1 1.00
     Exponent=  5.8731856571D-01 Coefficients=  1.0000000000D+00
 S 1 1.00
     Exponent=  1.8764592253D-01 Coefficients=  1.0000000000D+00
 P 3 1.00
     Exponent=  1.3571470233D+01 Coefficients= -4.0072398852D-02
     Exponent=  2.9257372874D+00 Coefficients= -2.1807045028D-01
     Exponent=  7.9927750754D-01 Coefficients= -5.1294466049D-01
 P 1 1.00
     Exponent=  2.1954348034D-01 Coefficients=  1.0000000000D+00
 D 1 1.00
     Exponent=  1.0000000000D+00 Coefficients=  1.0000000000D+00
 ****
 Centers:      22     23     40     41     42     43     44     45
 S 5 1.00
     Exponent=  2.8948325990D+03 Coefficients= -5.3408255515D-03
     Exponent=  4.3541939120D+02 Coefficients= -3.9904258866D-02
     Exponent=  9.8843328866D+01 Coefficients= -1.7912768038D-01
     Exponent=  2.7485198001D+01 Coefficients= -4.6758090825D-01
     Exponent=  8.5405498171D+00 Coefficients= -4.4653131020D-01
 S 1 1.00
     Exponent=  1.0654578038D+00 Coefficients=  1.0000000000D+00
 S 1 1.00
     Exponent=  3.3247346748D-01 Coefficients=  1.0000000000D+00
 P 3 1.00
     Exponent=  2.2696633924D+01 Coefficients= -4.5212874436D-02
     Exponent=  4.9872339257D+00 Coefficients= -2.3754317067D-01
     Exponent=  1.3491613954D+00 Coefficients= -5.1287353587D-01
 P 1 1.00
     Exponent=  3.4829881977D-01 Coefficients=  1.0000000000D+00
 D 1 1.00
     Exponent=  1.4000000000D+00 Coefficients=  1.0000000000D+00
 ****
 Centers:       1
 S 3 1.00
     Exponent=  1.6559563000D+01 Coefficients= -8.8494470000D-01
     Exponent=  1.3892440000D+01 Coefficients=  1.5011228000D+00
     Exponent=  5.8536080000D+00 Coefficients= -1.5529012000D+00
 S 1 1.00
     Exponent=  1.2873200000D+00 Coefficients=  1.0000000000D+00
 S 1 1.00
     Exponent=  6.0473200000D-01 Coefficients=  1.0000000000D+00
 S 1 1.00
     Exponent=  1.4278300000D-01 Coefficients=  1.0000000000D+00
 S 1 1.00
     Exponent=  5.0969000000D-02 Coefficients=  1.0000000000D+00
 S 1 1.00
     Exponent=  1.5000000000D-02 Coefficients=  1.0000000000D+00
 P 2 1.00
     Exponent=  7.9251750000D+00 Coefficients=  4.9530757000D+00
     Exponent=  7.3415380000D+00 Coefficients= -5.8982100000D+00
 P 2 1.00
     Exponent=  1.9125150000D+00 Coefficients=  3.0474250000D-01
     Exponent=  1.0715450000D+00 Coefficients=  7.1648940000D-01
 P 1 1.00
     Exponent=  4.3791700000D-01 Coefficients=  1.0000000000D+00
 P 1 1.00
     Exponent=  9.3621000000D-02 Coefficients=  1.0000000000D+00
 P 1 1.00
     Exponent=  2.7802000000D-02 Coefficients=  1.0000000000D+00
 D 4 1.00
     Exponent=  3.9395310000D+00 Coefficients= -5.8264390000D-01
     Exponent=  3.5877770000D+00 Coefficients=  5.9225760000D-01
     Exponent=  1.2862310000D+00 Coefficients=  4.7369210000D-01
     Exponent=  5.1981400000D-01 Coefficients=  5.7652020000D-01
 D 1 1.00
     Exponent=  1.7471500000D-01 Coefficients=  1.0000000000D+00
 D 1 1.00
     Exponent=  5.0000000000D-02 Coefficients=  1.0000000000D+00
 ****
 ======================================================================================================
                                       Pseudopotential Parameters
 ======================================================================================================
  Center     Atomic      Valence      Angular      Power
  Number     Number     Electrons     Momentum     of R      Exponent        Coefficient   SO-Coeffient
 ======================================================================================================
    1         78           18
                                      H and up 
                                                     2        1.0000000        0.00000000    0.00000000
                                      S - H
                                                     2       13.4286510      579.22386100    0.00000000
                                                     2        6.7143260       29.66949100    0.00000000
                                      P - H
                                                     2       10.3659440      280.86077400    0.00000000
                                                     2        5.1829720       26.74538200    0.00000000
                                      D - H
                                                     2        7.6004790      120.39644400    0.00000000
                                                     2        3.8002400       15.81092100    0.00000000
                                      F - H
                                                     2        3.3095690       24.31437600    0.00000000
                                      G - H
                                                     2        5.2772890      -24.21867500    0.00000000
    2          6
                                   No pseudopotential on this center.
    3          7
                                   No pseudopotential on this center.
    4          7
                                   No pseudopotential on this center.
    5          6
                                   No pseudopotential on this center.
    6          6
                                   No pseudopotential on this center.
    7          6
                                   No pseudopotential on this center.
    8          6
                                   No pseudopotential on this center.
    9          6
                                   No pseudopotential on this center.
   10          6
                                   No pseudopotential on this center.
   11          6
                                   No pseudopotential on this center.
   12          6
                                   No pseudopotential on this center.
   13          6
                                   No pseudopotential on this center.
   14          6
                                   No pseudopotential on this center.
   15          6
                                   No pseudopotential on this center.
   16          6
                                   No pseudopotential on this center.
   17          6
                                   No pseudopotential on this center.
   18          6
                                   No pseudopotential on this center.
   19          1
                                   No pseudopotential on this center.
   20          6
                                   No pseudopotential on this center.
   21          6
                                   No pseudopotential on this center.
   22          9
                                   No pseudopotential on this center.
   23          9
                                   No pseudopotential on this center.
   24          1
                                   No pseudopotential on this center.
   25          6
                                   No pseudopotential on this center.
   26          1
                                   No pseudopotential on this center.
   27          1
                                   No pseudopotential on this center.
   28          6
                                   No pseudopotential on this center.
   29          1
                                   No pseudopotential on this center.
   30          1
                                   No pseudopotential on this center.
   31          6
                                   No pseudopotential on this center.
   32          6
                                   No pseudopotential on this center.
   33          6
                                   No pseudopotential on this center.
   34          6
                                   No pseudopotential on this center.
   35          6
                                   No pseudopotential on this center.
   36          6
                                   No pseudopotential on this center.
   37          6
                                   No pseudopotential on this center.
   38          7
                                   No pseudopotential on this center.
   39          1
                                   No pseudopotential on this center.
   40          9
                                   No pseudopotential on this center.
   41          9
                                   No pseudopotential on this center.
   42          9
                                   No pseudopotential on this center.
   43          9
                                   No pseudopotential on this center.
   44          9
                                   No pseudopotential on this center.
   45          9
                                   No pseudopotential on this center.
   46          1
                                   No pseudopotential on this center.
   47          1
                                   No pseudopotential on this center.
   48          1
                                   No pseudopotential on this center.
   49          1
                                   No pseudopotential on this center.
   50          6
                                   No pseudopotential on this center.
   51          6
                                   No pseudopotential on this center.
   52          1
                                   No pseudopotential on this center.
   53          1
                                   No pseudopotential on this center.
   54          1
                                   No pseudopotential on this center.
   55          1
                                   No pseudopotential on this center.
   56          1
                                   No pseudopotential on this center.
   57          1
                                   No pseudopotential on this center.
 ======================================================================================================
 Ernie: Thresh=  0.10000D-02 Tol=  0.10000D-05 Strict=F.
 AO basis set in the form of general basis input (Overlap normalization):
      1 0
 S   3 1.00       0.000000000000
      0.1655956300D+02 -0.8849446898D+00
      0.1389244000D+02  0.1501122783D+01
      0.5853608000D+01 -0.1552901182D+01
 S   1 1.00       0.000000000000
      0.1287320000D+01  0.1000000000D+01
 S   1 1.00       0.000000000000
      0.6047320000D+00  0.1000000000D+01
 S   1 1.00       0.000000000000
      0.1427830000D+00  0.1000000000D+01
 S   1 1.00       0.000000000000
      0.5096900000D-01  0.1000000000D+01
 S   1 1.00       0.000000000000
      0.1500000000D-01  0.1000000000D+01
 P   2 1.00       0.000000000000
      0.7925175000D+01  0.4953075783D+01
      0.7341538000D+01 -0.5898210099D+01
 P   2 1.00       0.000000000000
      0.1912515000D+01  0.3047425139D+00
      0.1071545000D+01  0.7164894326D+00
 P   1 1.00       0.000000000000
      0.4379170000D+00  0.1000000000D+01
 P   1 1.00       0.000000000000
      0.9362100000D-01  0.1000000000D+01
 P   1 1.00       0.000000000000
      0.2780200000D-01  0.1000000000D+01
 D   4 1.00       0.000000000000
      0.3939531000D+01 -0.5826438825D+00
      0.3587777000D+01  0.5922575822D+00
      0.1286231000D+01  0.4736920858D+00
      0.5198140000D+00  0.5765201827D+00
 D   1 1.00       0.000000000000
      0.1747150000D+00  0.1000000000D+01
 D   1 1.00       0.000000000000
      0.5000000000D-01  0.1000000000D+01
 ****
      2 0
 S   5 1.00       0.000000000000
      0.1238401694D+04  0.5517365048D-02
      0.1862900499D+03  0.4108882856D-01
      0.4225117635D+02  0.1822538213D+00
      0.1167655793D+02  0.4682845944D+00
      0.3593050648D+01  0.4457581734D+00
 S   1 1.00       0.000000000000
      0.4024514736D+00  0.1000000000D+01
 S   1 1.00       0.000000000000
      0.1309018267D+00  0.1000000000D+01
 P   3 1.00       0.000000000000
      0.9468097062D+01  0.5688833201D-01
      0.2010354514D+01  0.3129405934D+00
      0.5477100471D+00  0.7606501651D+00
 P   1 1.00       0.000000000000
      0.1526861380D+00  0.1000000000D+01
 D   1 1.00       0.000000000000
      0.8000000000D+00  0.1000000000D+01
 ****
      3 0
 S   5 1.00       0.000000000000
      0.1712841585D+04 -0.5447799580D-02
      0.2576481268D+03 -0.4062717463D-01
      0.5845824585D+02 -0.1811196225D+00
      0.1619836791D+02 -0.4684397556D+00
      0.5005260081D+01 -0.4461684629D+00
 S   1 1.00       0.000000000000
      0.5873185657D+00  0.1000000000D+01
 S   1 1.00       0.000000000000
      0.1876459225D+00  0.1000000000D+01
 P   3 1.00       0.000000000000
      0.1357147023D+02 -0.5884811697D-01
      0.2925737287D+01 -0.3202462476D+00
      0.7992775075D+00 -0.7532822652D+00
 P   1 1.00       0.000000000000
      0.2195434803D+00  0.1000000000D+01
 D   1 1.00       0.000000000000
      0.1000000000D+01  0.1000000000D+01
 ****
      4 0
 S   5 1.00       0.000000000000
      0.1712841585D+04 -0.5447799580D-02
      0.2576481268D+03 -0.4062717463D-01
      0.5845824585D+02 -0.1811196225D+00
      0.1619836791D+02 -0.4684397556D+00
      0.5005260081D+01 -0.4461684629D+00
 S   1 1.00       0.000000000000
      0.5873185657D+00  0.1000000000D+01
 S   1 1.00       0.000000000000
      0.1876459225D+00  0.1000000000D+01
 P   3 1.00       0.000000000000
      0.1357147023D+02 -0.5884811697D-01
      0.2925737287D+01 -0.3202462476D+00
      0.7992775075D+00 -0.7532822652D+00
 P   1 1.00       0.000000000000
      0.2195434803D+00  0.1000000000D+01
 D   1 1.00       0.000000000000
      0.1000000000D+01  0.1000000000D+01
 ****
      5 0
 S   5 1.00       0.000000000000
      0.1238401694D+04  0.5517365048D-02
      0.1862900499D+03  0.4108882856D-01
      0.4225117635D+02  0.1822538213D+00
      0.1167655793D+02  0.4682845944D+00
      0.3593050648D+01  0.4457581734D+00
 S   1 1.00       0.000000000000
      0.4024514736D+00  0.1000000000D+01
 S   1 1.00       0.000000000000
      0.1309018267D+00  0.1000000000D+01
 P   3 1.00       0.000000000000
      0.9468097062D+01  0.5688833201D-01
      0.2010354514D+01  0.3129405934D+00
      0.5477100471D+00  0.7606501651D+00
 P   1 1.00       0.000000000000
      0.1526861380D+00  0.1000000000D+01
 D   1 1.00       0.000000000000
      0.8000000000D+00  0.1000000000D+01
 ****
      6 0
 S   5 1.00       0.000000000000
      0.1238401694D+04  0.5517365048D-02
      0.1862900499D+03  0.4108882856D-01
      0.4225117635D+02  0.1822538213D+00
      0.1167655793D+02  0.4682845944D+00
      0.3593050648D+01  0.4457581734D+00
 S   1 1.00       0.000000000000
      0.4024514736D+00  0.1000000000D+01
 S   1 1.00       0.000000000000
      0.1309018267D+00  0.1000000000D+01
 P   3 1.00       0.000000000000
      0.9468097062D+01  0.5688833201D-01
      0.2010354514D+01  0.3129405934D+00
      0.5477100471D+00  0.7606501651D+00
 P   1 1.00       0.000000000000
      0.1526861380D+00  0.1000000000D+01
 D   1 1.00       0.000000000000
      0.8000000000D+00  0.1000000000D+01
 ****
      7 0
 S   5 1.00       0.000000000000
      0.1238401694D+04  0.5517365048D-02
      0.1862900499D+03  0.4108882856D-01
      0.4225117635D+02  0.1822538213D+00
      0.1167655793D+02  0.4682845944D+00
      0.3593050648D+01  0.4457581734D+00
 S   1 1.00       0.000000000000
      0.4024514736D+00  0.1000000000D+01
 S   1 1.00       0.000000000000
      0.1309018267D+00  0.1000000000D+01
 P   3 1.00       0.000000000000
      0.9468097062D+01  0.5688833201D-01
      0.2010354514D+01  0.3129405934D+00
      0.5477100471D+00  0.7606501651D+00
 P   1 1.00       0.000000000000
      0.1526861380D+00  0.1000000000D+01
 D   1 1.00       0.000000000000
      0.8000000000D+00  0.1000000000D+01
 ****
      8 0
 S   5 1.00       0.000000000000
      0.1238401694D+04  0.5517365048D-02
      0.1862900499D+03  0.4108882856D-01
      0.4225117635D+02  0.1822538213D+00
      0.1167655793D+02  0.4682845944D+00
      0.3593050648D+01  0.4457581734D+00
 S   1 1.00       0.000000000000
      0.4024514736D+00  0.1000000000D+01
 S   1 1.00       0.000000000000
      0.1309018267D+00  0.1000000000D+01
 P   3 1.00       0.000000000000
      0.9468097062D+01  0.5688833201D-01
      0.2010354514D+01  0.3129405934D+00
      0.5477100471D+00  0.7606501651D+00
 P   1 1.00       0.000000000000
      0.1526861380D+00  0.1000000000D+01
 D   1 1.00       0.000000000000
      0.8000000000D+00  0.1000000000D+01
 ****
      9 0
 S   5 1.00       0.000000000000
      0.1238401694D+04  0.5517365048D-02
      0.1862900499D+03  0.4108882856D-01
      0.4225117635D+02  0.1822538213D+00
      0.1167655793D+02  0.4682845944D+00
      0.3593050648D+01  0.4457581734D+00
 S   1 1.00       0.000000000000
      0.4024514736D+00  0.1000000000D+01
 S   1 1.00       0.000000000000
      0.1309018267D+00  0.1000000000D+01
 P   3 1.00       0.000000000000
      0.9468097062D+01  0.5688833201D-01
      0.2010354514D+01  0.3129405934D+00
      0.5477100471D+00  0.7606501651D+00
 P   1 1.00       0.000000000000
      0.1526861380D+00  0.1000000000D+01
 D   1 1.00       0.000000000000
      0.8000000000D+00  0.1000000000D+01
 ****
     10 0
 S   5 1.00       0.000000000000
      0.1238401694D+04  0.5517365048D-02
      0.1862900499D+03  0.4108882856D-01
      0.4225117635D+02  0.1822538213D+00
      0.1167655793D+02  0.4682845944D+00
      0.3593050648D+01  0.4457581734D+00
 S   1 1.00       0.000000000000
      0.4024514736D+00  0.1000000000D+01
 S   1 1.00       0.000000000000
      0.1309018267D+00  0.1000000000D+01
 P   3 1.00       0.000000000000
      0.9468097062D+01  0.5688833201D-01
      0.2010354514D+01  0.3129405934D+00
      0.5477100471D+00  0.7606501651D+00
 P   1 1.00       0.000000000000
      0.1526861380D+00  0.1000000000D+01
 D   1 1.00       0.000000000000
      0.8000000000D+00  0.1000000000D+01
 ****
     11 0
 S   5 1.00       0.000000000000
      0.1238401694D+04  0.5517365048D-02
      0.1862900499D+03  0.4108882856D-01
      0.4225117635D+02  0.1822538213D+00
      0.1167655793D+02  0.4682845944D+00
      0.3593050648D+01  0.4457581734D+00
 S   1 1.00       0.000000000000
      0.4024514736D+00  0.1000000000D+01
 S   1 1.00       0.000000000000
      0.1309018267D+00  0.1000000000D+01
 P   3 1.00       0.000000000000
      0.9468097062D+01  0.5688833201D-01
      0.2010354514D+01  0.3129405934D+00
      0.5477100471D+00  0.7606501651D+00
 P   1 1.00       0.000000000000
      0.1526861380D+00  0.1000000000D+01
 D   1 1.00       0.000000000000
      0.8000000000D+00  0.1000000000D+01
 ****
     12 0
 S   5 1.00       0.000000000000
      0.1238401694D+04  0.5517365048D-02
      0.1862900499D+03  0.4108882856D-01
      0.4225117635D+02  0.1822538213D+00
      0.1167655793D+02  0.4682845944D+00
      0.3593050648D+01  0.4457581734D+00
 S   1 1.00       0.000000000000
      0.4024514736D+00  0.1000000000D+01
 S   1 1.00       0.000000000000
      0.1309018267D+00  0.1000000000D+01
 P   3 1.00       0.000000000000
      0.9468097062D+01  0.5688833201D-01
      0.2010354514D+01  0.3129405934D+00
      0.5477100471D+00  0.7606501651D+00
 P   1 1.00       0.000000000000
      0.1526861380D+00  0.1000000000D+01
 D   1 1.00       0.000000000000
      0.8000000000D+00  0.1000000000D+01
 ****
     13 0
 S   5 1.00       0.000000000000
      0.1238401694D+04  0.5517365048D-02
      0.1862900499D+03  0.4108882856D-01
      0.4225117635D+02  0.1822538213D+00
      0.1167655793D+02  0.4682845944D+00
      0.3593050648D+01  0.4457581734D+00
 S   1 1.00       0.000000000000
      0.4024514736D+00  0.1000000000D+01
 S   1 1.00       0.000000000000
      0.1309018267D+00  0.1000000000D+01
 P   3 1.00       0.000000000000
      0.9468097062D+01  0.5688833201D-01
      0.2010354514D+01  0.3129405934D+00
      0.5477100471D+00  0.7606501651D+00
 P   1 1.00       0.000000000000
      0.1526861380D+00  0.1000000000D+01
 D   1 1.00       0.000000000000
      0.8000000000D+00  0.1000000000D+01
 ****
     14 0
 S   5 1.00       0.000000000000
      0.1238401694D+04  0.5517365048D-02
      0.1862900499D+03  0.4108882856D-01
      0.4225117635D+02  0.1822538213D+00
      0.1167655793D+02  0.4682845944D+00
      0.3593050648D+01  0.4457581734D+00
 S   1 1.00       0.000000000000
      0.4024514736D+00  0.1000000000D+01
 S   1 1.00       0.000000000000
      0.1309018267D+00  0.1000000000D+01
 P   3 1.00       0.000000000000
      0.9468097062D+01  0.5688833201D-01
      0.2010354514D+01  0.3129405934D+00
      0.5477100471D+00  0.7606501651D+00
 P   1 1.00       0.000000000000
      0.1526861380D+00  0.1000000000D+01
 D   1 1.00       0.000000000000
      0.8000000000D+00  0.1000000000D+01
 ****
     15 0
 S   5 1.00       0.000000000000
      0.1238401694D+04  0.5517365048D-02
      0.1862900499D+03  0.4108882856D-01
      0.4225117635D+02  0.1822538213D+00
      0.1167655793D+02  0.4682845944D+00
      0.3593050648D+01  0.4457581734D+00
 S   1 1.00       0.000000000000
      0.4024514736D+00  0.1000000000D+01
 S   1 1.00       0.000000000000
      0.1309018267D+00  0.1000000000D+01
 P   3 1.00       0.000000000000
      0.9468097062D+01  0.5688833201D-01
      0.2010354514D+01  0.3129405934D+00
      0.5477100471D+00  0.7606501651D+00
 P   1 1.00       0.000000000000
      0.1526861380D+00  0.1000000000D+01
 D   1 1.00       0.000000000000
      0.8000000000D+00  0.1000000000D+01
 ****
     16 0
 S   5 1.00       0.000000000000
      0.1238401694D+04  0.5517365048D-02
      0.1862900499D+03  0.4108882856D-01
      0.4225117635D+02  0.1822538213D+00
      0.1167655793D+02  0.4682845944D+00
      0.3593050648D+01  0.4457581734D+00
 S   1 1.00       0.000000000000
      0.4024514736D+00  0.1000000000D+01
 S   1 1.00       0.000000000000
      0.1309018267D+00  0.1000000000D+01
 P   3 1.00       0.000000000000
      0.9468097062D+01  0.5688833201D-01
      0.2010354514D+01  0.3129405934D+00
      0.5477100471D+00  0.7606501651D+00
 P   1 1.00       0.000000000000
      0.1526861380D+00  0.1000000000D+01
 D   1 1.00       0.000000000000
      0.8000000000D+00  0.1000000000D+01
 ****
     17 0
 S   5 1.00       0.000000000000
      0.1238401694D+04  0.5517365048D-02
      0.1862900499D+03  0.4108882856D-01
      0.4225117635D+02  0.1822538213D+00
      0.1167655793D+02  0.4682845944D+00
      0.3593050648D+01  0.4457581734D+00
 S   1 1.00       0.000000000000
      0.4024514736D+00  0.1000000000D+01
 S   1 1.00       0.000000000000
      0.1309018267D+00  0.1000000000D+01
 P   3 1.00       0.000000000000
      0.9468097062D+01  0.5688833201D-01
      0.2010354514D+01  0.3129405934D+00
      0.5477100471D+00  0.7606501651D+00
 P   1 1.00       0.000000000000
      0.1526861380D+00  0.1000000000D+01
 D   1 1.00       0.000000000000
      0.8000000000D+00  0.1000000000D+01
 ****
     18 0
 S   5 1.00       0.000000000000
      0.1238401694D+04  0.5517365048D-02
      0.1862900499D+03  0.4108882856D-01
      0.4225117635D+02  0.1822538213D+00
      0.1167655793D+02  0.4682845944D+00
      0.3593050648D+01  0.4457581734D+00
 S   1 1.00       0.000000000000
      0.4024514736D+00  0.1000000000D+01
 S   1 1.00       0.000000000000
      0.1309018267D+00  0.1000000000D+01
 P   3 1.00       0.000000000000
      0.9468097062D+01  0.5688833201D-01
      0.2010354514D+01  0.3129405934D+00
      0.5477100471D+00  0.7606501651D+00
 P   1 1.00       0.000000000000
      0.1526861380D+00  0.1000000000D+01
 D   1 1.00       0.000000000000
      0.8000000000D+00  0.1000000000D+01
 ****
     19 0
 S   3 1.00       0.000000000000
      0.1301070100D+02  0.3348548481D-01
      0.1962257200D+01  0.2347218709D+00
      0.4445379600D+00  0.8137702853D+00
 S   1 1.00       0.000000000000
      0.1219496200D+00  0.1000000000D+01
 P   1 1.00       0.000000000000
      0.8000000000D+00  0.1000000000D+01
 ****
     20 0
 S   5 1.00       0.000000000000
      0.1238401694D+04  0.5517365048D-02
      0.1862900499D+03  0.4108882856D-01
      0.4225117635D+02  0.1822538213D+00
      0.1167655793D+02  0.4682845944D+00
      0.3593050648D+01  0.4457581734D+00
 S   1 1.00       0.000000000000
      0.4024514736D+00  0.1000000000D+01
 S   1 1.00       0.000000000000
      0.1309018267D+00  0.1000000000D+01
 P   3 1.00       0.000000000000
      0.9468097062D+01  0.5688833201D-01
      0.2010354514D+01  0.3129405934D+00
      0.5477100471D+00  0.7606501651D+00
 P   1 1.00       0.000000000000
      0.1526861380D+00  0.1000000000D+01
 D   1 1.00       0.000000000000
      0.8000000000D+00  0.1000000000D+01
 ****
     21 0
 S   5 1.00       0.000000000000
      0.1238401694D+04  0.5517365048D-02
      0.1862900499D+03  0.4108882856D-01
      0.4225117635D+02  0.1822538213D+00
      0.1167655793D+02  0.4682845944D+00
      0.3593050648D+01  0.4457581734D+00
 S   1 1.00       0.000000000000
      0.4024514736D+00  0.1000000000D+01
 S   1 1.00       0.000000000000
      0.1309018267D+00  0.1000000000D+01
 P   3 1.00       0.000000000000
      0.9468097062D+01  0.5688833201D-01
      0.2010354514D+01  0.3129405934D+00
      0.5477100471D+00  0.7606501651D+00
 P   1 1.00       0.000000000000
      0.1526861380D+00  0.1000000000D+01
 D   1 1.00       0.000000000000
      0.8000000000D+00  0.1000000000D+01
 ****
     22 0
 S   5 1.00       0.000000000000
      0.2894832599D+04 -0.5349321176D-02
      0.4354193912D+03 -0.3996773437D-01
      0.9884332887D+02 -0.1794126179D+00
      0.2748519800D+02 -0.4683246869D+00
      0.8540549817D+01 -0.4472416053D+00
 S   1 1.00       0.000000000000
      0.1065457804D+01  0.1000000000D+01
 S   1 1.00       0.000000000000
      0.3324734675D+00  0.1000000000D+01
 P   3 1.00       0.000000000000
      0.2269663392D+02 -0.6478214824D-01
      0.4987233926D+01 -0.3403578536D+00
      0.1349161395D+01 -0.7348581537D+00
 P   1 1.00       0.000000000000
      0.3482988198D+00  0.1000000000D+01
 D   1 1.00       0.000000000000
      0.1400000000D+01  0.1000000000D+01
 ****
     23 0
 S   5 1.00       0.000000000000
      0.2894832599D+04 -0.5349321176D-02
      0.4354193912D+03 -0.3996773437D-01
      0.9884332887D+02 -0.1794126179D+00
      0.2748519800D+02 -0.4683246869D+00
      0.8540549817D+01 -0.4472416053D+00
 S   1 1.00       0.000000000000
      0.1065457804D+01  0.1000000000D+01
 S   1 1.00       0.000000000000
      0.3324734675D+00  0.1000000000D+01
 P   3 1.00       0.000000000000
      0.2269663392D+02 -0.6478214824D-01
      0.4987233926D+01 -0.3403578536D+00
      0.1349161395D+01 -0.7348581537D+00
 P   1 1.00       0.000000000000
      0.3482988198D+00  0.1000000000D+01
 D   1 1.00       0.000000000000
      0.1400000000D+01  0.1000000000D+01
 ****
     24 0
 S   3 1.00       0.000000000000
      0.1301070100D+02  0.3348548481D-01
      0.1962257200D+01  0.2347218709D+00
      0.4445379600D+00  0.8137702853D+00
 S   1 1.00       0.000000000000
      0.1219496200D+00  0.1000000000D+01
 P   1 1.00       0.000000000000
      0.8000000000D+00  0.1000000000D+01
 ****
     25 0
 S   5 1.00       0.000000000000
      0.1238401694D+04  0.5517365048D-02
      0.1862900499D+03  0.4108882856D-01
      0.4225117635D+02  0.1822538213D+00
      0.1167655793D+02  0.4682845944D+00
      0.3593050648D+01  0.4457581734D+00
 S   1 1.00       0.000000000000
      0.4024514736D+00  0.1000000000D+01
 S   1 1.00       0.000000000000
      0.1309018267D+00  0.1000000000D+01
 P   3 1.00       0.000000000000
      0.9468097062D+01  0.5688833201D-01
      0.2010354514D+01  0.3129405934D+00
      0.5477100471D+00  0.7606501651D+00
 P   1 1.00       0.000000000000
      0.1526861380D+00  0.1000000000D+01
 D   1 1.00       0.000000000000
      0.8000000000D+00  0.1000000000D+01
 ****
     26 0
 S   3 1.00       0.000000000000
      0.1301070100D+02  0.3348548481D-01
      0.1962257200D+01  0.2347218709D+00
      0.4445379600D+00  0.8137702853D+00
 S   1 1.00       0.000000000000
      0.1219496200D+00  0.1000000000D+01
 P   1 1.00       0.000000000000
      0.8000000000D+00  0.1000000000D+01
 ****
     27 0
 S   3 1.00       0.000000000000
      0.1301070100D+02  0.3348548481D-01
      0.1962257200D+01  0.2347218709D+00
      0.4445379600D+00  0.8137702853D+00
 S   1 1.00       0.000000000000
      0.1219496200D+00  0.1000000000D+01
 P   1 1.00       0.000000000000
      0.8000000000D+00  0.1000000000D+01
 ****
     28 0
 S   5 1.00       0.000000000000
      0.1238401694D+04  0.5517365048D-02
      0.1862900499D+03  0.4108882856D-01
      0.4225117635D+02  0.1822538213D+00
      0.1167655793D+02  0.4682845944D+00
      0.3593050648D+01  0.4457581734D+00
 S   1 1.00       0.000000000000
      0.4024514736D+00  0.1000000000D+01
 S   1 1.00       0.000000000000
      0.1309018267D+00  0.1000000000D+01
 P   3 1.00       0.000000000000
      0.9468097062D+01  0.5688833201D-01
      0.2010354514D+01  0.3129405934D+00
      0.5477100471D+00  0.7606501651D+00
 P   1 1.00       0.000000000000
      0.1526861380D+00  0.1000000000D+01
 D   1 1.00       0.000000000000
      0.8000000000D+00  0.1000000000D+01
 ****
     29 0
 S   3 1.00       0.000000000000
      0.1301070100D+02  0.3348548481D-01
      0.1962257200D+01  0.2347218709D+00
      0.4445379600D+00  0.8137702853D+00
 S   1 1.00       0.000000000000
      0.1219496200D+00  0.1000000000D+01
 P   1 1.00       0.000000000000
      0.8000000000D+00  0.1000000000D+01
 ****
     30 0
 S   3 1.00       0.000000000000
      0.1301070100D+02  0.3348548481D-01
      0.1962257200D+01  0.2347218709D+00
      0.4445379600D+00  0.8137702853D+00
 S   1 1.00       0.000000000000
      0.1219496200D+00  0.1000000000D+01
 P   1 1.00       0.000000000000
      0.8000000000D+00  0.1000000000D+01
 ****
     31 0
 S   5 1.00       0.000000000000
      0.1238401694D+04  0.5517365048D-02
      0.1862900499D+03  0.4108882856D-01
      0.4225117635D+02  0.1822538213D+00
      0.1167655793D+02  0.4682845944D+00
      0.3593050648D+01  0.4457581734D+00
 S   1 1.00       0.000000000000
      0.4024514736D+00  0.1000000000D+01
 S   1 1.00       0.000000000000
      0.1309018267D+00  0.1000000000D+01
 P   3 1.00       0.000000000000
      0.9468097062D+01  0.5688833201D-01
      0.2010354514D+01  0.3129405934D+00
      0.5477100471D+00  0.7606501651D+00
 P   1 1.00       0.000000000000
      0.1526861380D+00  0.1000000000D+01
 D   1 1.00       0.000000000000
      0.8000000000D+00  0.1000000000D+01
 ****
     32 0
 S   5 1.00       0.000000000000
      0.1238401694D+04  0.5517365048D-02
      0.1862900499D+03  0.4108882856D-01
      0.4225117635D+02  0.1822538213D+00
      0.1167655793D+02  0.4682845944D+00
      0.3593050648D+01  0.4457581734D+00
 S   1 1.00       0.000000000000
      0.4024514736D+00  0.1000000000D+01
 S   1 1.00       0.000000000000
      0.1309018267D+00  0.1000000000D+01
 P   3 1.00       0.000000000000
      0.9468097062D+01  0.5688833201D-01
      0.2010354514D+01  0.3129405934D+00
      0.5477100471D+00  0.7606501651D+00
 P   1 1.00       0.000000000000
      0.1526861380D+00  0.1000000000D+01
 D   1 1.00       0.000000000000
      0.8000000000D+00  0.1000000000D+01
 ****
     33 0
 S   5 1.00       0.000000000000
      0.1238401694D+04  0.5517365048D-02
      0.1862900499D+03  0.4108882856D-01
      0.4225117635D+02  0.1822538213D+00
      0.1167655793D+02  0.4682845944D+00
      0.3593050648D+01  0.4457581734D+00
 S   1 1.00       0.000000000000
      0.4024514736D+00  0.1000000000D+01
 S   1 1.00       0.000000000000
      0.1309018267D+00  0.1000000000D+01
 P   3 1.00       0.000000000000
      0.9468097062D+01  0.5688833201D-01
      0.2010354514D+01  0.3129405934D+00
      0.5477100471D+00  0.7606501651D+00
 P   1 1.00       0.000000000000
      0.1526861380D+00  0.1000000000D+01
 D   1 1.00       0.000000000000
      0.8000000000D+00  0.1000000000D+01
 ****
     34 0
 S   5 1.00       0.000000000000
      0.1238401694D+04  0.5517365048D-02
      0.1862900499D+03  0.4108882856D-01
      0.4225117635D+02  0.1822538213D+00
      0.1167655793D+02  0.4682845944D+00
      0.3593050648D+01  0.4457581734D+00
 S   1 1.00       0.000000000000
      0.4024514736D+00  0.1000000000D+01
 S   1 1.00       0.000000000000
      0.1309018267D+00  0.1000000000D+01
 P   3 1.00       0.000000000000
      0.9468097062D+01  0.5688833201D-01
      0.2010354514D+01  0.3129405934D+00
      0.5477100471D+00  0.7606501651D+00
 P   1 1.00       0.000000000000
      0.1526861380D+00  0.1000000000D+01
 D   1 1.00       0.000000000000
      0.8000000000D+00  0.1000000000D+01
 ****
     35 0
 S   5 1.00       0.000000000000
      0.1238401694D+04  0.5517365048D-02
      0.1862900499D+03  0.4108882856D-01
      0.4225117635D+02  0.1822538213D+00
      0.1167655793D+02  0.4682845944D+00
      0.3593050648D+01  0.4457581734D+00
 S   1 1.00       0.000000000000
      0.4024514736D+00  0.1000000000D+01
 S   1 1.00       0.000000000000
      0.1309018267D+00  0.1000000000D+01
 P   3 1.00       0.000000000000
      0.9468097062D+01  0.5688833201D-01
      0.2010354514D+01  0.3129405934D+00
      0.5477100471D+00  0.7606501651D+00
 P   1 1.00       0.000000000000
      0.1526861380D+00  0.1000000000D+01
 D   1 1.00       0.000000000000
      0.8000000000D+00  0.1000000000D+01
 ****
     36 0
 S   5 1.00       0.000000000000
      0.1238401694D+04  0.5517365048D-02
      0.1862900499D+03  0.4108882856D-01
      0.4225117635D+02  0.1822538213D+00
      0.1167655793D+02  0.4682845944D+00
      0.3593050648D+01  0.4457581734D+00
 S   1 1.00       0.000000000000
      0.4024514736D+00  0.1000000000D+01
 S   1 1.00       0.000000000000
      0.1309018267D+00  0.1000000000D+01
 P   3 1.00       0.000000000000
      0.9468097062D+01  0.5688833201D-01
      0.2010354514D+01  0.3129405934D+00
      0.5477100471D+00  0.7606501651D+00
 P   1 1.00       0.000000000000
      0.1526861380D+00  0.1000000000D+01
 D   1 1.00       0.000000000000
      0.8000000000D+00  0.1000000000D+01
 ****
     37 0
 S   5 1.00       0.000000000000
      0.1238401694D+04  0.5517365048D-02
      0.1862900499D+03  0.4108882856D-01
      0.4225117635D+02  0.1822538213D+00
      0.1167655793D+02  0.4682845944D+00
      0.3593050648D+01  0.4457581734D+00
 S   1 1.00       0.000000000000
      0.4024514736D+00  0.1000000000D+01
 S   1 1.00       0.000000000000
      0.1309018267D+00  0.1000000000D+01
 P   3 1.00       0.000000000000
      0.9468097062D+01  0.5688833201D-01
      0.2010354514D+01  0.3129405934D+00
      0.5477100471D+00  0.7606501651D+00
 P   1 1.00       0.000000000000
      0.1526861380D+00  0.1000000000D+01
 D   1 1.00       0.000000000000
      0.8000000000D+00  0.1000000000D+01
 ****
     38 0
 S   5 1.00       0.000000000000
      0.1712841585D+04 -0.5447799580D-02
      0.2576481268D+03 -0.4062717463D-01
      0.5845824585D+02 -0.1811196225D+00
      0.1619836791D+02 -0.4684397556D+00
      0.5005260081D+01 -0.4461684629D+00
 S   1 1.00       0.000000000000
      0.5873185657D+00  0.1000000000D+01
 S   1 1.00       0.000000000000
      0.1876459225D+00  0.1000000000D+01
 P   3 1.00       0.000000000000
      0.1357147023D+02 -0.5884811697D-01
      0.2925737287D+01 -0.3202462476D+00
      0.7992775075D+00 -0.7532822652D+00
 P   1 1.00       0.000000000000
      0.2195434803D+00  0.1000000000D+01
 D   1 1.00       0.000000000000
      0.1000000000D+01  0.1000000000D+01
 ****
     39 0
 S   3 1.00       0.000000000000
      0.1301070100D+02  0.3348548481D-01
      0.1962257200D+01  0.2347218709D+00
      0.4445379600D+00  0.8137702853D+00
 S   1 1.00       0.000000000000
      0.1219496200D+00  0.1000000000D+01
 P   1 1.00       0.000000000000
      0.8000000000D+00  0.1000000000D+01
 ****
     40 0
 S   5 1.00       0.000000000000
      0.2894832599D+04 -0.5349321176D-02
      0.4354193912D+03 -0.3996773437D-01
      0.9884332887D+02 -0.1794126179D+00
      0.2748519800D+02 -0.4683246869D+00
      0.8540549817D+01 -0.4472416053D+00
 S   1 1.00       0.000000000000
      0.1065457804D+01  0.1000000000D+01
 S   1 1.00       0.000000000000
      0.3324734675D+00  0.1000000000D+01
 P   3 1.00       0.000000000000
      0.2269663392D+02 -0.6478214824D-01
      0.4987233926D+01 -0.3403578536D+00
      0.1349161395D+01 -0.7348581537D+00
 P   1 1.00       0.000000000000
      0.3482988198D+00  0.1000000000D+01
 D   1 1.00       0.000000000000
      0.1400000000D+01  0.1000000000D+01
 ****
     41 0
 S   5 1.00       0.000000000000
      0.2894832599D+04 -0.5349321176D-02
      0.4354193912D+03 -0.3996773437D-01
      0.9884332887D+02 -0.1794126179D+00
      0.2748519800D+02 -0.4683246869D+00
      0.8540549817D+01 -0.4472416053D+00
 S   1 1.00       0.000000000000
      0.1065457804D+01  0.1000000000D+01
 S   1 1.00       0.000000000000
      0.3324734675D+00  0.1000000000D+01
 P   3 1.00       0.000000000000
      0.2269663392D+02 -0.6478214824D-01
      0.4987233926D+01 -0.3403578536D+00
      0.1349161395D+01 -0.7348581537D+00
 P   1 1.00       0.000000000000
      0.3482988198D+00  0.1000000000D+01
 D   1 1.00       0.000000000000
      0.1400000000D+01  0.1000000000D+01
 ****
     42 0
 S   5 1.00       0.000000000000
      0.2894832599D+04 -0.5349321176D-02
      0.4354193912D+03 -0.3996773437D-01
      0.9884332887D+02 -0.1794126179D+00
      0.2748519800D+02 -0.4683246869D+00
      0.8540549817D+01 -0.4472416053D+00
 S   1 1.00       0.000000000000
      0.1065457804D+01  0.1000000000D+01
 S   1 1.00       0.000000000000
      0.3324734675D+00  0.1000000000D+01
 P   3 1.00       0.000000000000
      0.2269663392D+02 -0.6478214824D-01
      0.4987233926D+01 -0.3403578536D+00
      0.1349161395D+01 -0.7348581537D+00
 P   1 1.00       0.000000000000
      0.3482988198D+00  0.1000000000D+01
 D   1 1.00       0.000000000000
      0.1400000000D+01  0.1000000000D+01
 ****
     43 0
 S   5 1.00       0.000000000000
      0.2894832599D+04 -0.5349321176D-02
      0.4354193912D+03 -0.3996773437D-01
      0.9884332887D+02 -0.1794126179D+00
      0.2748519800D+02 -0.4683246869D+00
      0.8540549817D+01 -0.4472416053D+00
 S   1 1.00       0.000000000000
      0.1065457804D+01  0.1000000000D+01
 S   1 1.00       0.000000000000
      0.3324734675D+00  0.1000000000D+01
 P   3 1.00       0.000000000000
      0.2269663392D+02 -0.6478214824D-01
      0.4987233926D+01 -0.3403578536D+00
      0.1349161395D+01 -0.7348581537D+00
 P   1 1.00       0.000000000000
      0.3482988198D+00  0.1000000000D+01
 D   1 1.00       0.000000000000
      0.1400000000D+01  0.1000000000D+01
 ****
     44 0
 S   5 1.00       0.000000000000
      0.2894832599D+04 -0.5349321176D-02
      0.4354193912D+03 -0.3996773437D-01
      0.9884332887D+02 -0.1794126179D+00
      0.2748519800D+02 -0.4683246869D+00
      0.8540549817D+01 -0.4472416053D+00
 S   1 1.00       0.000000000000
      0.1065457804D+01  0.1000000000D+01
 S   1 1.00       0.000000000000
      0.3324734675D+00  0.1000000000D+01
 P   3 1.00       0.000000000000
      0.2269663392D+02 -0.6478214824D-01
      0.4987233926D+01 -0.3403578536D+00
      0.1349161395D+01 -0.7348581537D+00
 P   1 1.00       0.000000000000
      0.3482988198D+00  0.1000000000D+01
 D   1 1.00       0.000000000000
      0.1400000000D+01  0.1000000000D+01
 ****
     45 0
 S   5 1.00       0.000000000000
      0.2894832599D+04 -0.5349321176D-02
      0.4354193912D+03 -0.3996773437D-01
      0.9884332887D+02 -0.1794126179D+00
      0.2748519800D+02 -0.4683246869D+00
      0.8540549817D+01 -0.4472416053D+00
 S   1 1.00       0.000000000000
      0.1065457804D+01  0.1000000000D+01
 S   1 1.00       0.000000000000
      0.3324734675D+00  0.1000000000D+01
 P   3 1.00       0.000000000000
      0.2269663392D+02 -0.6478214824D-01
      0.4987233926D+01 -0.3403578536D+00
      0.1349161395D+01 -0.7348581537D+00
 P   1 1.00       0.000000000000
      0.3482988198D+00  0.1000000000D+01
 D   1 1.00       0.000000000000
      0.1400000000D+01  0.1000000000D+01
 ****
     46 0
 S   3 1.00       0.000000000000
      0.1301070100D+02  0.3348548481D-01
      0.1962257200D+01  0.2347218709D+00
      0.4445379600D+00  0.8137702853D+00
 S   1 1.00       0.000000000000
      0.1219496200D+00  0.1000000000D+01
 P   1 1.00       0.000000000000
      0.8000000000D+00  0.1000000000D+01
 ****
     47 0
 S   3 1.00       0.000000000000
      0.1301070100D+02  0.3348548481D-01
      0.1962257200D+01  0.2347218709D+00
      0.4445379600D+00  0.8137702853D+00
 S   1 1.00       0.000000000000
      0.1219496200D+00  0.1000000000D+01
 P   1 1.00       0.000000000000
      0.8000000000D+00  0.1000000000D+01
 ****
     48 0
 S   3 1.00       0.000000000000
      0.1301070100D+02  0.3348548481D-01
      0.1962257200D+01  0.2347218709D+00
      0.4445379600D+00  0.8137702853D+00
 S   1 1.00       0.000000000000
      0.1219496200D+00  0.1000000000D+01
 P   1 1.00       0.000000000000
      0.8000000000D+00  0.1000000000D+01
 ****
     49 0
 S   3 1.00       0.000000000000
      0.1301070100D+02  0.3348548481D-01
      0.1962257200D+01  0.2347218709D+00
      0.4445379600D+00  0.8137702853D+00
 S   1 1.00       0.000000000000
      0.1219496200D+00  0.1000000000D+01
 P   1 1.00       0.000000000000
      0.8000000000D+00  0.1000000000D+01
 ****
     50 0
 S   5 1.00       0.000000000000
      0.1238401694D+04  0.5517365048D-02
      0.1862900499D+03  0.4108882856D-01
      0.4225117635D+02  0.1822538213D+00
      0.1167655793D+02  0.4682845944D+00
      0.3593050648D+01  0.4457581734D+00
 S   1 1.00       0.000000000000
      0.4024514736D+00  0.1000000000D+01
 S   1 1.00       0.000000000000
      0.1309018267D+00  0.1000000000D+01
 P   3 1.00       0.000000000000
      0.9468097062D+01  0.5688833201D-01
      0.2010354514D+01  0.3129405934D+00
      0.5477100471D+00  0.7606501651D+00
 P   1 1.00       0.000000000000
      0.1526861380D+00  0.1000000000D+01
 D   1 1.00       0.000000000000
      0.8000000000D+00  0.1000000000D+01
 ****
     51 0
 S   5 1.00       0.000000000000
      0.1238401694D+04  0.5517365048D-02
      0.1862900499D+03  0.4108882856D-01
      0.4225117635D+02  0.1822538213D+00
      0.1167655793D+02  0.4682845944D+00
      0.3593050648D+01  0.4457581734D+00
 S   1 1.00       0.000000000000
      0.4024514736D+00  0.1000000000D+01
 S   1 1.00       0.000000000000
      0.1309018267D+00  0.1000000000D+01
 P   3 1.00       0.000000000000
      0.9468097062D+01  0.5688833201D-01
      0.2010354514D+01  0.3129405934D+00
      0.5477100471D+00  0.7606501651D+00
 P   1 1.00       0.000000000000
      0.1526861380D+00  0.1000000000D+01
 D   1 1.00       0.000000000000
      0.8000000000D+00  0.1000000000D+01
 ****
     52 0
 S   3 1.00       0.000000000000
      0.1301070100D+02  0.3348548481D-01
      0.1962257200D+01  0.2347218709D+00
      0.4445379600D+00  0.8137702853D+00
 S   1 1.00       0.000000000000
      0.1219496200D+00  0.1000000000D+01
 P   1 1.00       0.000000000000
      0.8000000000D+00  0.1000000000D+01
 ****
     53 0
 S   3 1.00       0.000000000000
      0.1301070100D+02  0.3348548481D-01
      0.1962257200D+01  0.2347218709D+00
      0.4445379600D+00  0.8137702853D+00
 S   1 1.00       0.000000000000
      0.1219496200D+00  0.1000000000D+01
 P   1 1.00       0.000000000000
      0.8000000000D+00  0.1000000000D+01
 ****
     54 0
 S   3 1.00       0.000000000000
      0.1301070100D+02  0.3348548481D-01
      0.1962257200D+01  0.2347218709D+00
      0.4445379600D+00  0.8137702853D+00
 S   1 1.00       0.000000000000
      0.1219496200D+00  0.1000000000D+01
 P   1 1.00       0.000000000000
      0.8000000000D+00  0.1000000000D+01
 ****
     55 0
 S   3 1.00       0.000000000000
      0.1301070100D+02  0.3348548481D-01
      0.1962257200D+01  0.2347218709D+00
      0.4445379600D+00  0.8137702853D+00
 S   1 1.00       0.000000000000
      0.1219496200D+00  0.1000000000D+01
 P   1 1.00       0.000000000000
      0.8000000000D+00  0.1000000000D+01
 ****
     56 0
 S   3 1.00       0.000000000000
      0.1301070100D+02  0.3348548481D-01
      0.1962257200D+01  0.2347218709D+00
      0.4445379600D+00  0.8137702853D+00
 S   1 1.00       0.000000000000
      0.1219496200D+00  0.1000000000D+01
 P   1 1.00       0.000000000000
      0.8000000000D+00  0.1000000000D+01
 ****
     57 0
 S   3 1.00       0.000000000000
      0.1301070100D+02  0.3348548481D-01
      0.1962257200D+01  0.2347218709D+00
      0.4445379600D+00  0.8137702853D+00
 S   1 1.00       0.000000000000
      0.1219496200D+00  0.1000000000D+01
 P   1 1.00       0.000000000000
      0.8000000000D+00  0.1000000000D+01
 ****

 Effective core potential in the form of general ECP input:
      1 0
 Pt1-ECP   5 60
 H component
  1
  2        1.0000000        0.00000000    0.00000000
 S-H projection
  2
  2       13.4286510      579.22386100    0.00000000
  2        6.7143260       29.66949100    0.00000000
 P-H projection
  2
  2       10.3659440      280.86077400    0.00000000
  2        5.1829720       26.74538200    0.00000000
 D-H projection
  2
  2        7.6004790      120.39644400    0.00000000
  2        3.8002400       15.81092100    0.00000000
 F-H projection
  1
  2        3.3095690       24.31437600    0.00000000
 G-H projection
  1
  2        5.2772890      -24.21867500    0.00000000
 
 There are   709 symmetry adapted cartesian basis functions of A   symmetry.
 There are   667 symmetry adapted basis functions of A   symmetry.
   667 basis functions,  1159 primitive gaussians,   709 cartesian basis functions
   148 alpha electrons      148 beta electrons
       nuclear repulsion energy      4615.4495121638 Hartrees.
 IExCor=  402 DFT=T Ex+Corr=B3LYP ExCW=0 ScaHFX=  0.200000
 ScaDFX=  0.800000  0.720000  1.000000  0.810000 ScalE2=  1.000000  1.000000
 IRadAn=      5 IRanWt=     -1 IRanGd=            0 ICorTp=0 IEmpDi=  4
 NAtoms=   57 NActive=   57 NUniq=   57 SFac= 1.00D+00 NAtFMM=   60 NAOKFM=F Big=F
 Integral buffers will be    131072 words long.
 Raffenetti 2 integral format.
 Two-electron integral symmetry is turned on.
 Force PCM accuracy= 1.00D-12.
 Using the following non-standard input for PCM:
 Radii=UFF
 --- end of non-standard input.
 Force PCM accuracy= 1.00D-12.
 ------------------------------------------------------------------------------
 Polarizable Continuum Model (PCM)
 =================================
 Model                : PCM.
 Atomic radii         : UFF (Universal Force Field).
 Polarization charges : Total charges.
 Charge compensation  : None.
 Solution method      : On-the-fly selection.
 Cavity type          : Scaled VdW (van der Waals Surface) (Alpha=1.100).
 Cavity algorithm     : GePol (No added spheres)
                        Default sphere list used, NSphG=   57.
                        Lebedev-Laikov grids with approx.  5.0 points / Ang**2.
                        Smoothing algorithm: York/Karplus (Gamma=1.0000).
                        Polarization charges: spherical gaussians, with
                                              point-specific exponents (IZeta= 3).
                        Self-potential: point-specific (ISelfS= 7).
                        Self-field    : sphere-specific E.n sum rule (ISelfD= 2).
 Solvent              : n,n-DiMethylFormamide, Eps=  37.219000 Eps(inf)=   2.046330
 ------------------------------------------------------------------------------
 GePol: Number of generator spheres                  =      57
 GePol: Total number of spheres                      =      57
 GePol: Number of exposed spheres                    =      57 (100.00%)
 GePol: Number of points                             =    4625
 GePol: Average weight of points                     =       0.13
 GePol: Minimum weight of points                     =   0.84D-10
 GePol: Maximum weight of points                     =    0.21838
 GePol: Number of points with low weight             =     240
 GePol: Fraction of low-weight points (<1% of avg)   =       5.19%
 GePol: Cavity surface area                          =    588.921 Ang**2
 GePol: Cavity volume                                =    659.404 Ang**3
 Leave Link  301 at Wed Jul 24 18:37:37 2024, MaxMem=  4026531840 cpu:               0.4 elap:               0.1
 (Enter /home/scr/programas/g16/l302.exe)
 NPDir=0 NMtPBC=     1 NCelOv=     1 NCel=       1 NClECP=     1 NCelD=      1
         NCelK=      1 NCelE2=     1 NClLst=     1 CellRange=     0.0.
 One-electron integrals computed using PRISM.
 One-electron integral symmetry used in STVInt
   1 Symmetry operations used in ECPInt.
 ECPInt:  NShTT=   44850 NPrTT=  165594 LenC2=   32525 LenP2D=   76308.
 LDataN:  DoStor=T MaxTD1= 7 Len=  274
 NBasis=   667 RedAO= T EigKep=  1.72D-04  NBF=   667
 NBsUse=   667 1.00D-06 EigRej= -1.00D+00 NBFU=   667
 Precomputing XC quadrature grid using
 IXCGrd= 4 IRadAn=           5 IRanWt=          -1 IRanGd=           0 AccXCQ= 1.00D-12.
 Defaulting to unpruned grid for atomic number  78.
 Generated NRdTot=       0 NPtTot=           0 NUsed=           0 NTot=          32
 NSgBfM=   679   679   679   679   679 MxSgAt=    57 MxSgA2=    57.
 Leave Link  302 at Wed Jul 24 18:37:39 2024, MaxMem=  4026531840 cpu:              11.6 elap:               1.5
 (Enter /home/scr/programas/g16/l303.exe)
 DipDrv:  MaxL=1.
 Leave Link  303 at Wed Jul 24 18:37:39 2024, MaxMem=  4026531840 cpu:               0.5 elap:               0.1
 (Enter /home/scr/programas/g16/l401.exe)
 ExpMin= 1.50D-02 ExpMax= 2.89D+03 ExpMxC= 4.35D+02 IAcc=3 IRadAn=         5 AccDes= 0.00D+00
 Harris functional with IExCor=  402 and IRadAn=       5 diagonalized for initial guess.
 HarFok:  IExCor=  402 AccDes= 0.00D+00 IRadAn=         5 IDoV= 1 UseB2=F ITyADJ=14
 ICtDFT=  3500011 ScaDFX=  1.000000  1.000000  1.000000  1.000000
 Defaulting to unpruned grid for atomic number  78.
 FoFCou: FMM=F IPFlag=           0 FMFlag=      100000 FMFlg1=           0
         NFxFlg=           0 DoJE=T BraDBF=F KetDBF=T FulRan=T
         wScrn=  0.000000 ICntrl=       500 IOpCl=  0 I1Cent=   200000004 NGrid=           0
         NMat0=    1 NMatS0=      1 NMatT0=    0 NMatD0=    1 NMtDS0=    0 NMtDT0=    0
 Petite list used in FoFCou.
 Harris En= -2157.80237103115    
 JPrj=0 DoOrth=F DoCkMO=F.
 Leave Link  401 at Wed Jul 24 18:37:45 2024, MaxMem=  4026531840 cpu:              47.2 elap:               5.9
 (Enter /home/scr/programas/g16/l502.exe)
 Integral symmetry usage will be decided dynamically.
 Closed shell SCF:
 Using DIIS extrapolation, IDIIS=  1040.
 NGot=  4026531840 LenX=  4025512342 LenY=  4025008952
 Requested convergence on RMS density matrix=1.00D-08 within 200 cycles.
 Requested convergence on MAX density matrix=1.00D-06.
 Requested convergence on             energy=1.00D-06.
 No special actions if energy rises.
 Fock matrices will be formed incrementally for  20 cycles.

 Cycle   1  Pass 1  IDiag  1:
 FoFJK:  IHMeth= 1 ICntrl=       0 DoSepK=F KAlg= 0 I1Cent=           0 FoldK=F
 IRaf= 630000000 NMat=       1 IRICut=       1 DoRegI=T DoRafI=F ISym2E= 0 IDoP0=0 IntGTp=1.
 FoFCou: FMM=F IPFlag=           0 FMFlag=      100000 FMFlg1=           0
         NFxFlg=           0 DoJE=F BraDBF=F KetDBF=F FulRan=T
         wScrn=  0.000000 ICntrl=         0 IOpCl=  0 I1Cent=           0 NGrid=           0
         NMat0=    1 NMatS0=      1 NMatT0=    0 NMatD0=    1 NMtDS0=    0 NMtDT0=    0
 Symmetry not used in FoFCou.
 Defaulting to unpruned grid for atomic number  78.
 Defaulting to unpruned grid for atomic number  78.
 Defaulting to unpruned grid for atomic number  78.
 Defaulting to unpruned grid for atomic number  78.
 Defaulting to unpruned grid for atomic number  78.
 Defaulting to unpruned grid for atomic number  78.
 Defaulting to unpruned grid for atomic number  78.
 Defaulting to unpruned grid for atomic number  78.
 Inv3:  Mode=1 IEnd=    64171875.
 Iteration    1 A*A^-1 deviation from unit magnitude is 1.28D-14 for   3106.
 Iteration    1 A*A^-1 deviation from orthogonality  is 8.48D-15 for   2577    597.
 Iteration    1 A^-1*A deviation from unit magnitude is 1.28D-14 for   3106.
 Iteration    1 A^-1*A deviation from orthogonality  is 8.48D-15 for   2401   2305.
 E= -2155.88641238934    
 DIIS: error= 8.68D-02 at cycle   1 NSaved=   1.
 NSaved= 1 IEnMin= 1 EnMin= -2155.88641238934     IErMin= 1 ErrMin= 8.68D-02
 ErrMax= 8.68D-02  0.00D+00 EMaxC= 1.00D-01 BMatC= 2.50D+00 BMatP= 2.50D+00
 IDIUse=3 WtCom= 1.32D-01 WtEn= 8.68D-01
 Coeff-Com:  0.100D+01
 Coeff-En:   0.100D+01
 Coeff:      0.100D+01
 Gap=     0.733 Goal=   None    Shift=    0.000
 GapD=    0.733 DampG=2.000 DampE=0.250 DampFc=0.5000 IDamp=-1.
 Damping current iteration by 5.00D-01
 RMSDP=1.06D-02 MaxDP=2.31D+00              OVMax= 7.13D-01

 Cycle   2  Pass 1  IDiag  1:
 RMSU=  5.29D-03    CP:  9.97D-01
 E= -2156.31425020768     Delta-E=       -0.427837818344 Rises=F Damp=T
 DIIS: error= 2.81D-02 at cycle   2 NSaved=   2.
 NSaved= 2 IEnMin= 2 EnMin= -2156.31425020768     IErMin= 2 ErrMin= 2.81D-02
 ErrMax= 2.81D-02  0.00D+00 EMaxC= 1.00D-01 BMatC= 4.87D-01 BMatP= 2.50D+00
 IDIUse=3 WtCom= 7.19D-01 WtEn= 2.81D-01
 Coeff-Com:  0.260D+00 0.740D+00
 Coeff-En:   0.428D+00 0.572D+00
 Coeff:      0.307D+00 0.693D+00
 Gap=     0.107 Goal=   None    Shift=    0.000
 RMSDP=5.06D-03 MaxDP=1.06D+00 DE=-4.28D-01 OVMax= 8.44D-01

 Cycle   3  Pass 1  IDiag  1:
 RMSU=  2.67D-03    CP:  9.50D-01  2.00D-01
 E= -2157.74915617193     Delta-E=       -1.434905964252 Rises=F Damp=F
 DIIS: error= 2.33D-02 at cycle   3 NSaved=   3.
 NSaved= 3 IEnMin= 3 EnMin= -2157.74915617193     IErMin= 3 ErrMin= 2.33D-02
 ErrMax= 2.33D-02  0.00D+00 EMaxC= 1.00D-01 BMatC= 3.89D-01 BMatP= 4.87D-01
 IDIUse=3 WtCom= 7.67D-01 WtEn= 2.33D-01
 Coeff-Com:  0.185D+00 0.413D+00 0.402D+00
 Coeff-En:   0.770D-01 0.000D+00 0.923D+00
 Coeff:      0.160D+00 0.317D+00 0.523D+00
 Gap=     0.157 Goal=   None    Shift=    0.000
 RMSDP=1.53D-03 MaxDP=1.52D-01 DE=-1.43D+00 OVMax= 1.75D-01

 Cycle   4  Pass 1  IDiag  1:
 RMSU=  1.42D-03    CP:  9.47D-01  1.72D-01  7.98D-01
 E= -2158.00281983145     Delta-E=       -0.253663659522 Rises=F Damp=F
 DIIS: error= 1.57D-02 at cycle   4 NSaved=   4.
 NSaved= 4 IEnMin= 4 EnMin= -2158.00281983145     IErMin= 4 ErrMin= 1.57D-02
 ErrMax= 1.57D-02  0.00D+00 EMaxC= 1.00D-01 BMatC= 1.40D-01 BMatP= 3.89D-01
 IDIUse=3 WtCom= 8.43D-01 WtEn= 1.57D-01
 Coeff-Com:  0.369D-01 0.288D-01 0.367D+00 0.567D+00
 Coeff-En:   0.000D+00 0.000D+00 0.298D+00 0.702D+00
 Coeff:      0.311D-01 0.243D-01 0.356D+00 0.588D+00
 Gap=     0.076 Goal=   None    Shift=    0.000
 RMSDP=6.15D-04 MaxDP=5.21D-02 DE=-2.54D-01 OVMax= 8.11D-02

 Cycle   5  Pass 1  IDiag  1:
 RMSU=  3.47D-04    CP:  9.48D-01  1.66D-01  8.68D-01  6.69D-01
 E= -2158.13068510568     Delta-E=       -0.127865274224 Rises=F Damp=F
 DIIS: error= 2.78D-03 at cycle   5 NSaved=   5.
 NSaved= 5 IEnMin= 5 EnMin= -2158.13068510568     IErMin= 5 ErrMin= 2.78D-03
 ErrMax= 2.78D-03  0.00D+00 EMaxC= 1.00D-01 BMatC= 7.67D-03 BMatP= 1.40D-01
 IDIUse=3 WtCom= 9.72D-01 WtEn= 2.78D-02
 Coeff-Com:  0.582D-02-0.936D-02 0.151D+00 0.312D+00 0.541D+00
 Coeff-En:   0.000D+00 0.000D+00 0.000D+00 0.000D+00 0.100D+01
 Coeff:      0.566D-02-0.910D-02 0.146D+00 0.303D+00 0.554D+00
 Gap=     0.089 Goal=   None    Shift=    0.000
 RMSDP=1.85D-04 MaxDP=1.24D-02 DE=-1.28D-01 OVMax= 2.55D-02

 Cycle   6  Pass 1  IDiag  1:
 RMSU=  1.38D-04    CP:  9.48D-01  1.64D-01  8.68D-01  7.06D-01  6.85D-01
 E= -2158.13749759203     Delta-E=       -0.006812486354 Rises=F Damp=F
 DIIS: error= 1.49D-03 at cycle   6 NSaved=   6.
 NSaved= 6 IEnMin= 6 EnMin= -2158.13749759203     IErMin= 6 ErrMin= 1.49D-03
 ErrMax= 1.49D-03  0.00D+00 EMaxC= 1.00D-01 BMatC= 9.76D-04 BMatP= 7.67D-03
 IDIUse=3 WtCom= 9.85D-01 WtEn= 1.49D-02
 Coeff-Com:  0.952D-03-0.915D-02 0.425D-01 0.974D-01 0.306D+00 0.562D+00
 Coeff-En:   0.000D+00 0.000D+00 0.000D+00 0.000D+00 0.907D-01 0.909D+00
 Coeff:      0.938D-03-0.901D-02 0.418D-01 0.959D-01 0.303D+00 0.567D+00
 Gap=     0.088 Goal=   None    Shift=    0.000
 RMSDP=6.70D-05 MaxDP=5.40D-03 DE=-6.81D-03 OVMax= 1.00D-02

 Cycle   7  Pass 1  IDiag  1:
 RMSU=  4.77D-05    CP:  9.48D-01  1.62D-01  8.72D-01  6.98D-01  7.41D-01
                    CP:  7.15D-01
 E= -2158.13836794274     Delta-E=       -0.000870350710 Rises=F Damp=F
 DIIS: error= 6.20D-04 at cycle   7 NSaved=   7.
 NSaved= 7 IEnMin= 7 EnMin= -2158.13836794274     IErMin= 7 ErrMin= 6.20D-04
 ErrMax= 6.20D-04  0.00D+00 EMaxC= 1.00D-01 BMatC= 1.57D-04 BMatP= 9.76D-04
 IDIUse=3 WtCom= 9.94D-01 WtEn= 6.20D-03
 Coeff-Com:  0.170D-03-0.398D-02 0.835D-02 0.188D-01 0.112D+00 0.349D+00
 Coeff-Com:  0.516D+00
 Coeff-En:   0.000D+00 0.000D+00 0.000D+00 0.000D+00 0.000D+00 0.110D+00
 Coeff-En:   0.890D+00
 Coeff:      0.169D-03-0.395D-02 0.830D-02 0.187D-01 0.112D+00 0.347D+00
 Coeff:      0.518D+00
 Gap=     0.088 Goal=   None    Shift=    0.000
 RMSDP=2.47D-05 MaxDP=1.93D-03 DE=-8.70D-04 OVMax= 4.01D-03

 Cycle   8  Pass 1  IDiag  1:
 RMSU=  1.80D-05    CP:  9.48D-01  1.62D-01  8.72D-01  6.98D-01  7.40D-01
                    CP:  7.71D-01  6.88D-01
 E= -2158.13851255682     Delta-E=       -0.000144614080 Rises=F Damp=F
 DIIS: error= 1.66D-04 at cycle   8 NSaved=   8.
 NSaved= 8 IEnMin= 8 EnMin= -2158.13851255682     IErMin= 8 ErrMin= 1.66D-04
 ErrMax= 1.66D-04  0.00D+00 EMaxC= 1.00D-01 BMatC= 1.77D-05 BMatP= 1.57D-04
 IDIUse=3 WtCom= 9.98D-01 WtEn= 1.66D-03
 Coeff-Com:  0.235D-03-0.120D-02 0.344D-03-0.837D-03 0.266D-01 0.132D+00
 Coeff-Com:  0.308D+00 0.535D+00
 Coeff-En:   0.000D+00 0.000D+00 0.000D+00 0.000D+00 0.000D+00 0.000D+00
 Coeff-En:   0.613D-01 0.939D+00
 Coeff:      0.235D-03-0.120D-02 0.343D-03-0.835D-03 0.266D-01 0.132D+00
 Coeff:      0.307D+00 0.536D+00
 Gap=     0.088 Goal=   None    Shift=    0.000
 RMSDP=9.35D-06 MaxDP=8.28D-04 DE=-1.45D-04 OVMax= 1.37D-03

 Cycle   9  Pass 1  IDiag  1:
 RMSU=  7.60D-06    CP:  9.48D-01  1.62D-01  8.72D-01  6.98D-01  7.42D-01
                    CP:  7.70D-01  7.35D-01  7.28D-01
 E= -2158.13852943941     Delta-E=       -0.000016882585 Rises=F Damp=F
 DIIS: error= 4.89D-05 at cycle   9 NSaved=   9.
 NSaved= 9 IEnMin= 9 EnMin= -2158.13852943941     IErMin= 9 ErrMin= 4.89D-05
 ErrMax= 4.89D-05  0.00D+00 EMaxC= 1.00D-01 BMatC= 2.39D-06 BMatP= 1.77D-05
 IDIUse=1 WtCom= 1.00D+00 WtEn= 0.00D+00
 Coeff-Com:  0.131D-03-0.221D-03-0.894D-03-0.298D-02 0.172D-02 0.342D-01
 Coeff-Com:  0.119D+00 0.326D+00 0.523D+00
 Coeff:      0.131D-03-0.221D-03-0.894D-03-0.298D-02 0.172D-02 0.342D-01
 Coeff:      0.119D+00 0.326D+00 0.523D+00
 Gap=     0.088 Goal=   None    Shift=    0.000
 RMSDP=3.56D-06 MaxDP=3.53D-04 DE=-1.69D-05 OVMax= 5.80D-04

 Cycle  10  Pass 1  IDiag  1:
 RMSU=  2.26D-06    CP:  9.48D-01  1.62D-01  8.72D-01  6.98D-01  7.42D-01
                    CP:  7.78D-01  7.50D-01  7.54D-01  7.08D-01
 E= -2158.13853189567     Delta-E=       -0.000002456258 Rises=F Damp=F
 DIIS: error= 1.76D-05 at cycle  10 NSaved=  10.
 NSaved=10 IEnMin=10 EnMin= -2158.13853189567     IErMin=10 ErrMin= 1.76D-05
[...]
   zzz       -0.403073D+02     -0.348223D+00     -0.129240D+00

 First dipole hyperpolarizability, Beta (input orientation).
 ||, _|_  parallel and perpendicular components, (z) with respect to z axis,
 vector components x,y,z.  Values do not include the 1/n! factor of 1/2.
 (esu units = statvolt**-1 cm**4 , SI units = C**3 m**3 J**-2)
 Beta(0;0,0):
               (au)            (10**-30 esu)      (10**-50 SI)
   || (z)    -0.217421D+03     -0.187835D+01     -0.697131D+00
   _|_(z)    -0.724737D+02     -0.626117D+00     -0.232377D+00
   x          0.147560D+06      0.127481D+04      0.473132D+03
   y         -0.474201D+03     -0.409673D+01     -0.152046D+01
   z         -0.108711D+04     -0.939175D+01     -0.348565D+01
   ||         0.295130D+05      0.254970D+03      0.946294D+02
   xxx        0.474134D+05      0.409615D+03      0.152024D+03
   xxy       -0.149560D+03     -0.129208D+01     -0.479544D+00
   yxy        0.175943D+04      0.152001D+02      0.564136D+01
   yyy       -0.813774D+01     -0.703038D-01     -0.260925D-01
   xxz       -0.250514D+03     -0.216424D+01     -0.803238D+00
   yxz       -0.195778D+02     -0.169137D+00     -0.627734D-01
   yyz       -0.715477D+02     -0.618116D+00     -0.229408D+00
   zxz        0.139895D+02      0.120858D+00      0.448554D-01
   zyz       -0.369298D+00     -0.319044D-02     -0.118410D-02
   zzz       -0.403073D+02     -0.348223D+00     -0.129240D+00
 Beta(-w;w,0) w= 1907.0nm:
                  (au)         (10**-30 esu)      (10**-50 SI)
   || (z)    -0.189542D+03     -0.163750D+01     -0.607742D+00
   _|_(z)    -0.526425D+02     -0.454790D+00     -0.168791D+00
   x          0.133342D+06      0.115197D+04      0.427542D+03
   y         -0.433062D+03     -0.374132D+01     -0.138855D+01
   z         -0.947712D+03     -0.818750D+01     -0.303871D+01
   ||         0.266692D+05      0.230401D+03      0.855111D+02
   xxx        0.425212D+05      0.367350D+03      0.136338D+03
   yxx       -0.131301D+03     -0.113434D+01     -0.420999D+00
   yyx        0.169631D+04      0.146548D+02      0.543897D+01
   zxx       -0.247149D+03     -0.213517D+01     -0.792448D+00
   zyx       -0.129604D+02     -0.111967D+00     -0.415556D-01
   zzx        0.407374D+02      0.351939D+00      0.130619D+00
   xxy       -0.131135D+03     -0.113291D+01     -0.420467D+00
   yxy        0.200451D+04      0.173174D+02      0.642717D+01
   yyy       -0.126770D+02     -0.109519D+00     -0.406469D-01
   zxy       -0.123327D+02     -0.106545D+00     -0.395431D-01
   zyy       -0.576703D+02     -0.498226D+00     -0.184912D+00
   zzy       -0.537693D+00     -0.464525D-02     -0.172404D-02
   xxz       -0.222572D+03     -0.192285D+01     -0.713646D+00
   yxz       -0.117633D+02     -0.101626D+00     -0.377175D-01
   yyz       -0.506321D+02     -0.437422D+00     -0.162345D+00
   zxz        0.161143D+02      0.139215D+00      0.516682D-01
   zyz       -0.377952D+00     -0.326521D-02     -0.121185D-02
   zzz       -0.216234D+02     -0.186809D+00     -0.693324D-01
 Beta(-2w;w,w) w= 1907.0nm:
                  (au)         (10**-30 esu)      (10**-50 SI)
   || (z)    -0.244795D+03     -0.211484D+01     -0.784902D+00
   _|_(z)    -0.893146D+02     -0.771608D+00     -0.286375D+00
   x          0.187864D+06      0.162300D+04      0.602361D+03
   y         -0.630869D+03     -0.545021D+01     -0.202279D+01
   z         -0.122398D+04     -0.105742D+02     -0.392451D+01
   ||         0.375739D+05      0.324609D+03      0.120475D+03
   xxx        0.592215D+05      0.511627D+03      0.189885D+03
   yxx       -0.181739D+03     -0.157008D+01     -0.582720D+00
   zxx       -0.346627D+03     -0.299459D+01     -0.111141D+01
   xyx       -0.179794D+03     -0.155328D+01     -0.576486D+00
   yyx        0.323027D+04      0.279070D+02      0.103574D+02
   zyx       -0.546467D+01     -0.472105D-01     -0.175217D-01
   xyy        0.367295D+04      0.317315D+02      0.117768D+02
   yyy       -0.293983D+02     -0.253979D+00     -0.942616D-01
   zyy       -0.598422D+02     -0.516990D+00     -0.191876D+00
   xzx       -0.328584D+03     -0.283871D+01     -0.105356D+01
   yzx       -0.581487D+01     -0.502359D-01     -0.186446D-01
   zzx        0.243979D+02      0.210779D+00      0.782285D-01
   xzy       -0.579929D+01     -0.501013D-01     -0.185946D-01
   yzy       -0.547362D+02     -0.472878D+00     -0.175504D+00
   zzy       -0.455165D+00     -0.393227D-02     -0.145942D-02
   xzz        0.177755D+02      0.153567D+00      0.569948D-01
   yzz       -0.435621D+00     -0.376342D-02     -0.139676D-02
   zzz       -0.169553D+02     -0.146481D+00     -0.543649D-01

 ----------------------------------------------------------------------

 Dipole orientation:
    78          0.25581541          0.00756630          1.88829112
     6         -0.07991501         -0.00157967         -1.97013315
     7          0.29915552         -3.82030664          2.56287405
     7          0.32985538          3.83849400          2.54613451
     6          0.21506949          5.62716144          0.75343464
     6          0.16574302         -5.61493142          0.77745089
     6          0.51912718          4.51415581          5.06300775
     6          0.49186135         -4.48743380          5.08164035
     6          0.62405180         -2.33128493          6.81579042
     6          0.63708878          2.36440690          6.80603890
     6          0.83848894          2.30372031          9.44960174
     6          0.58146498          7.07840436          5.72959092
     6          0.46027927          8.92634476          3.86722575
     6          0.27761118          8.19259222          1.33051227
     6          0.82638740         -2.26058298          9.45900832
     6          0.93310924          0.02404366         10.77917683
     6          0.55171501         -7.04969806          5.75673444
     6          0.41632769         -8.90386911          3.90148607
     1          0.70934935         -7.56081429          7.74264493
     6          0.21672561         -8.17832216          1.36361284
     6          0.53465628          0.01430213          5.56592944
     9          0.92606759         -4.40422114         10.80521944
     9          0.94899930          4.45240025         10.78700549
     1          0.02027923         -4.93803610         -1.16338244
     6          0.01172084        -10.13898674         -0.69084164
     1          0.47142187        -10.89798148          4.42806741
     1          0.06314872          4.94397750         -1.18477833
     6          0.19908197         10.14672676         -0.73898436
     1          0.72325337          7.59570272          7.71505495
     1          0.50106887         10.92216265          4.38814523
     6         -0.36400028         -0.01061748         -4.28977829
     6         -0.72512570         -0.02095536         -6.96933118
     6         -0.96320671          2.24596244         -8.36456203
     6         -0.88523192         -2.29874499         -8.35805081
     6         -1.34473436          2.25065368        -10.96426368
     6         -1.26552340         -2.32387659        -10.95785561
     6         -1.51383102         -0.04215726        -12.35306218
     7         -1.90144168         -0.05241422        -14.92678815
     1          1.09092768          0.02783738         12.83305409
     9         -1.49659769         11.96902034         -0.22526207
     9         -0.41403598          9.13814345         -2.98529201
     9          2.45003081         11.30009552         -1.01752097
     9          0.22976750         -9.12509156         -3.00680423
     9         -2.22467497        -11.34914067         -0.60221637
     9          1.81375027        -11.91639456         -0.45722757
     1         -0.84944127          4.05225104         -7.36830134
     1         -1.51667520          4.06260704        -11.92650047
     1         -1.37358890         -4.14330152        -11.91538506
     1         -0.70867416         -4.09721669         -7.35680599
     6         -2.15607783          2.31269028        -16.29012458
     6         -2.07352222         -2.42872868        -16.28357328
     1         -0.45063929          3.50681981        -16.12040641
     1         -3.78056668          3.44025336        -15.61607946
     1         -2.45280631          1.91685477        -18.30279860
     1         -3.65430436         -3.61230812        -15.60195565
     1         -0.32548110         -3.55995448        -16.11555042
     1         -2.38974036         -2.04917786        -18.29642650

 Electric dipole moment (dipole orientation):
 (Debye = 10**-18 statcoulomb cm , SI units = C m)
                  (au)            (Debye)         (10**-30 SI)
   Tot        0.154675D+01      0.393146D+01      0.131139D+02
   x          0.000000D+00      0.000000D+00      0.000000D+00
   y          0.000000D+00      0.000000D+00      0.000000D+00
   z          0.154675D+01      0.393146D+01      0.131139D+02

 Dipole polarizability, Alpha (dipole orientation).
 (esu units = cm**3 , SI units = C**2 m**2 J**-1)
 Alpha(0;0):
               (au)            (10**-24 esu)      (10**-40 SI)
   iso        0.614359D+03      0.910386D+02      0.101294D+03
   aniso      0.580460D+03      0.860153D+02      0.957049D+02
   xx         0.256662D+03      0.380333D+02      0.423178D+02
   yx         0.373757D+00      0.553851D-01      0.616242D-01
   yy         0.686387D+03      0.101712D+03      0.113170D+03
   zx         0.702770D+02      0.104140D+02      0.115871D+02
   zy         0.102122D+01      0.151329D+00      0.168376D+00
   zz         0.900029D+03      0.133370D+03      0.148395D+03

 Dipole polarizability, Alpha (dipole orientation).
 (esu units = cm**3 , SI units = C**2 m**2 J**-1)
 Alpha(0;0):
               (au)            (10**-24 esu)      (10**-40 SI)
   iso        0.614359D+03      0.910386D+02      0.101294D+03
   aniso      0.580460D+03      0.860153D+02      0.957049D+02
   xx         0.256662D+03      0.380333D+02      0.423178D+02
   yx         0.373757D+00      0.553851D-01      0.616242D-01
   yy         0.686387D+03      0.101712D+03      0.113170D+03
   zx         0.702770D+02      0.104140D+02      0.115871D+02
   zy         0.102122D+01      0.151329D+00      0.168376D+00
   zz         0.900029D+03      0.133370D+03      0.148395D+03
 Alpha(-w;w) w= 1907.0nm:
                  (au)         (10**-24 esu)      (10**-40 SI)
   iso        0.516953D+03      0.766045D+02      0.852340D+02
   aniso      0.527688D+03      0.781953D+02      0.870040D+02
   xx         0.195578D+03      0.289817D+02      0.322465D+02
   yx         0.640849D+00      0.949640D-01      0.105662D+00
   yy         0.571941D+03      0.847529D+02      0.943003D+02
   zx         0.646778D+02      0.958426D+01      0.106639D+02
   zy         0.987966D+00      0.146401D+00      0.162894D+00
   zz         0.783340D+03      0.116079D+03      0.129155D+03

 First dipole hyperpolarizability, Beta (dipole orientation).
 ||, _|_  parallel and perpendicular components, (z) with respect to z axis,
 vector components x,y,z.  Values do not include the 1/n! factor of 1/2.
 (esu units = statvolt**-1 cm**4 , SI units = C**3 m**3 J**-2)
 Beta(0;0,0):
               (au)            (10**-30 esu)      (10**-50 SI)
   || (z)     0.293054D+05      0.253176D+03      0.939636D+02
   _|_(z)     0.976846D+04      0.843919D+02      0.313212D+02
   x          0.174670D+05      0.150901D+03      0.560054D+02
   y          0.503357D+03      0.434861D+01      0.161395D+01
   z          0.146527D+06      0.126588D+04      0.469818D+03
   ||         0.295130D+05      0.254970D+03      0.946294D+02
   xxx        0.118426D+03      0.102311D+01      0.379718D+00
   xxy        0.969821D+01      0.837849D-01      0.310960D-01
   yxy        0.266850D+03      0.230537D+01      0.855617D+00
   yyy        0.255023D+02      0.220320D+00      0.817696D-01
   xxz        0.644958D+03      0.557193D+01      0.206797D+01
   yxz        0.485585D+02      0.419508D+00      0.155696D+00
   yyz        0.174005D+04      0.150327D+02      0.557922D+01
   zxz        0.543704D+04      0.469718D+02      0.174331D+02
   zyz        0.132585D+03      0.114543D+01      0.425116D+00
   zzz        0.464573D+05      0.401355D+03      0.148959D+03

 First dipole hyperpolarizability, Beta (dipole orientation).
 ||, _|_  parallel and perpendicular components, (z) with respect to z axis,
 vector components x,y,z.  Values do not include the 1/n! factor of 1/2.
 (esu units = statvolt**-1 cm**4 , SI units = C**3 m**3 J**-2)
 Beta(0;0,0):
               (au)            (10**-30 esu)      (10**-50 SI)
   || (z)     0.293054D+05      0.253176D+03      0.939636D+02
   _|_(z)     0.976846D+04      0.843919D+02      0.313212D+02
   x          0.174670D+05      0.150901D+03      0.560054D+02
   y          0.503357D+03      0.434861D+01      0.161395D+01
   z          0.146527D+06      0.126588D+04      0.469818D+03
   ||         0.295130D+05      0.254970D+03      0.946294D+02
   xxx        0.118426D+03      0.102311D+01      0.379718D+00
   xxy        0.969821D+01      0.837849D-01      0.310960D-01
   yxy        0.266850D+03      0.230537D+01      0.855617D+00
   yyy        0.255023D+02      0.220320D+00      0.817696D-01
   xxz        0.644958D+03      0.557193D+01      0.206797D+01
   yxz        0.485585D+02      0.419508D+00      0.155696D+00
   yyz        0.174005D+04      0.150327D+02      0.557922D+01
   zxz        0.543704D+04      0.469718D+02      0.174331D+02
   zyz        0.132585D+03      0.114543D+01      0.425116D+00
   zzz        0.464573D+05      0.401355D+03      0.148959D+03
 Beta(-w;w,0) w= 1907.0nm:
                  (au)         (10**-30 esu)      (10**-50 SI)
   || (z)     0.264824D+05      0.228787D+03      0.849120D+02
   _|_(z)     0.873469D+04      0.754609D+02      0.280066D+02
   x          0.157494D+05      0.136063D+03      0.504984D+02
   y          0.450560D+03      0.389249D+01      0.144466D+01
   z          0.132412D+06      0.114393D+04      0.424560D+03
   ||         0.266692D+05      0.230401D+03      0.855111D+02
   xxx        0.963314D+02      0.832228D+00      0.308873D+00
   yxx        0.792758D+01      0.684881D-01      0.254187D-01
   yyx        0.238957D+03      0.206440D+01      0.766182D+00
   zxx        0.585280D+03      0.505636D+01      0.187662D+01
   zyx        0.409668D+02      0.353922D+00      0.131354D+00
   zzx        0.487258D+04      0.420953D+02      0.156232D+02
   xxy        0.824392D+01      0.712211D-01      0.264330D-01
   yxy        0.280180D+03      0.242054D+01      0.898360D+00
   yyy        0.241825D+02      0.208918D+00      0.775379D-01
   zxy        0.414270D+02      0.357897D+00      0.132830D+00
   zyy        0.198529D+04      0.171514D+02      0.636557D+01
   zzy        0.116659D+03      0.100784D+01      0.374051D+00
   xxz        0.612476D+03      0.529132D+01      0.196382D+01
   yxz        0.397955D+02      0.343802D+00      0.127599D+00
   yyz        0.167979D+04      0.145121D+02      0.538602D+01
   zxz        0.489427D+04      0.422827D+02      0.156928D+02
   zyz        0.118627D+03      0.102485D+01      0.380362D+00
   zzz        0.416595D+05      0.359905D+03      0.133575D+03
 Beta(-2w;w,w) w= 1907.0nm:
                  (au)         (10**-30 esu)      (10**-50 SI)
   || (z)     0.373133D+05      0.322358D+03      0.119640D+03
   _|_(z)     0.125814D+05      0.108693D+03      0.403404D+02
   x          0.220786D+05      0.190742D+03      0.707919D+02
   y          0.614893D+03      0.531220D+01      0.197157D+01
   z          0.186567D+06      0.161179D+04      0.598200D+03
   ||         0.375739D+05      0.324609D+03      0.120475D+03
   xxx        0.117430D+03      0.101451D+01      0.376524D+00
   yxx        0.941438D+01      0.813329D-01      0.301859D-01
   zxx        0.812619D+03      0.702039D+01      0.260555D+01
   xyx        0.980496D+01      0.847073D-01      0.314383D-01
   yyx        0.413361D+03      0.357112D+01      0.132539D+01
   zyx        0.525087D+02      0.453635D+00      0.168362D+00
   xyy        0.467578D+03      0.403951D+01      0.149922D+01
   yyy        0.370147D+02      0.319778D+00      0.118683D+00
   zyy        0.364315D+04      0.314740D+02      0.116813D+02
   xzx        0.821178D+03      0.709434D+01      0.263299D+01
   yzx        0.493109D+02      0.426007D+00      0.158108D+00
   zzx        0.680492D+04      0.587892D+02      0.218190D+02
   xzy        0.489054D+02      0.422504D+00      0.156808D+00
   yzy        0.320379D+04      0.276782D+02      0.102725D+02
   zzy        0.157873D+03      0.136390D+01      0.506198D+00
   xzz        0.682213D+04      0.589379D+02      0.218742D+02
   yzz        0.159079D+03      0.137432D+01      0.510064D+00
   zzz        0.580203D+05      0.501250D+03      0.186034D+03

 ----------------------------------------------------------------------
 Unable to Open any file for archive entry.
 1\1\GINC-NQTCM09\SP\RB3LYP\Gen\C28H17F8N3Pt1\NQTCM\24-Jul-2024\0\\#p B
 3LYP/gen gfinput pseudo=read Integral(Grid=UltraFine,Acc2E=12) scf=max
 cycle=200 Polar=(DCSHG) CPHF=RdFreq scrf=(iefpcm,read,solvent=n,n-DiMe
 thylFormamide)\\Primeira Hiperpolarizabilidade\\0,1\Pt,0,1.008098,-0.0
 02554,-0.023564\C,0,-1.040778,0.006667,-0.073725\N,0,1.351872,-2.03058
 8,-0.021851\N,0,1.371945,2.022246,-0.008714\C,0,0.428756,2.975399,-0.0
 46602\C,0,0.398749,-2.973631,-0.063676\C,0,2.709059,2.370496,0.042286\
 C,0,2.685437,-2.392871,0.022148\C,0,3.612802,-1.258329,0.063032\C,0,3.
 625038,1.226484,0.074159\C,0,5.026887,1.184637,0.123314\C,0,3.072337,3
 .724956,0.058798\C,0,2.092345,4.709726,0.020417\C,0,0.74498,4.330839,-
 0.035451\C,0,5.014989,-1.230647,0.112194\C,0,5.723602,-0.026575,0.1426
 58\C,0,3.034924,-3.751151,0.020208\C,0,2.044754,-4.725434,-0.024916\H,
 0,4.086755,-4.028899,0.051962\C,0,0.700942,-4.332187,-0.06618\C,0,2.95
 8548,-0.012537,0.045884\F,0,5.721231,-2.369922,0.130392\F,0,5.744306,2
 .316718,0.152261\H,0,-0.628075,-2.608296,-0.098527\C,0,-0.398457,-5.36
 228,-0.086817\H,0,2.317868,-5.782506,-0.030833\H,0,-0.601877,2.621014,
 -0.083278\C,0,-0.341058,5.372771,-0.108014\H,0,4.126637,3.99134,0.1029
 23\H,0,2.375744,5.7639,0.037457\C,0,-2.277388,0.010047,-0.060642\C,0,-
 3.707803,0.013889,-0.028194\C,0,-4.447523,1.218102,0.023999\C,0,-4.455
 58,-1.186483,-0.034584\C,0,-5.837091,1.229509,0.071927\C,0,-5.845235,-
 1.190852,0.01257\C,0,-6.585491,0.021157,0.070201\N,0,-7.961809,0.02453
 ,0.122795\H,0,6.813007,-0.032126,0.180343\F,0,-0.164121,6.329015,0.821
 111\F,0,-1.561973,4.845788,0.078463\F,0,-0.351158,5.992134,-1.303574\F
 ,0,-1.600001,-4.815854,-0.333542\F,0,-0.487575,-6.010889,1.089708\F,0,
 -0.175967,-6.29735,-1.027787\H,0,-3.910527,2.170366,0.029839\H,0,-6.34
 6824,2.1915,0.112978\H,0,-6.361574,-2.1502,0.005956\H,0,-3.925014,-2.1
 41478,-0.075718\C,0,-8.685382,1.280514,0.185956\C,0,-8.693844,-1.22814
 5,0.124189\H,0,-8.491668,1.917746,-0.696229\H,0,-8.422404,1.868759,1.0
 84316\H,0,-9.762669,1.077962,0.222194\H,0,-8.432484,-1.862718,0.990876
 \H,0,-8.506737,-1.821219,-0.789689\H,0,-9.76963,-1.020469,0.17373\\Ver
 sion=EM64L-G16RevC.01\State=1-A\HF=-2158.1385321\RMSD=5.209e-09\Dipole
 =1.5371488,-0.0115506,0.1717229\Polar=907.6106626,-0.4397875,686.36254
 69,2.4713033,2.9910452,249.1041438\HyperPolar=47413.3700169,-149.56004
 64,1759.4277869,-8.1377424,-250.513719,-19.5777652,-71.5476591,13.9895
 129,-0.3692975,-40.3072708\Quadrupole=34.2869006,-5.7297065,-28.557194
 2,-0.1206662,-0.9533112,0.754037\PG=C01 [X(C28H17F8N3Pt1)]\\@
 The archive entry for this job was punched.


 The most important thing in communication is to hear what isn't being said.
 -- Peter F. Drucker
 Job cpu time:       0 days  7 hours 39 minutes 32.0 seconds.
 Elapsed time:       0 days  0 hours 57 minutes 29.5 seconds.
 File lengths (MBytes):  RWF=   4018 Int=      0 D2E=      0 Chk=     32 Scr=      1
 Normal termination of Gaussian 16 at Wed Jul 24 19:35:07 2024.
